/*--------------------------------*- C++ -*----------------------------------*\
| =========                 |                                                 |
| \\      /  F ield         | OpenFOAM: The Open Source CFD Toolbox           |
|  \\    /   O peration     | Version:  2412                                  |
|   \\  /    A nd           | Website:  www.openfoam.com                      |
|    \\/     M anipulation  |                                                 |
\*---------------------------------------------------------------------------*/
FoamFile
{
    version     2.0;
    format      ascii;
    arch        "LSB;label=32;scalar=64";
    class       volScalarField;
    location    "0.01";
    object      nut;
}
// * * * * * * * * * * * * * * * * * * * * * * * * * * * * * * * * * * * * * //

dimensions      [0 2 -1 0 0 0 0];

internalField   nonuniform List<scalar> 
12225
(
2.01524e-05
2.25001e-05
2.47759e-05
2.64112e-05
2.76422e-05
2.8585e-05
2.93218e-05
2.99086e-05
3.0382e-05
3.07683e-05
3.10863e-05
3.13495e-05
3.15676e-05
3.17474e-05
3.18939e-05
3.20109e-05
3.2115e-05
3.22774e-05
0.000167864
0.000185593
0.000202813
0.000214035
0.000221415
0.000226267
0.000229291
0.000231012
0.000231804
0.000231928
0.000231569
0.000230863
0.00022991
0.000228786
0.00022755
0.000226246
0.000225045
0.000224646
0.000338545
0.000366313
0.000399731
0.000424802
0.000443196
0.000456581
0.000466131
0.000472785
0.000477263
0.000480097
0.000481685
0.000482328
0.000482252
0.000481631
0.000480602
0.000479305
0.000478039
0.000477983
0.000481027
0.000522276
0.000570665
0.000608939
0.000638351
0.000660777
0.000677718
0.000690402
0.000699796
0.000706642
0.00071151
0.00071484
0.000716975
0.000718182
0.000718686
0.000718709
0.000718617
0.000719315
0.000594192
0.000651732
0.000714279
0.000764544
0.000803996
0.000834809
0.000858791
0.000877406
0.000891812
0.000902911
0.00091141
0.000917865
0.000922717
0.000926324
0.000928995
0.000931029
0.000932813
0.000934984
0.000685307
0.000757756
0.000833066
0.000894088
0.000942539
0.0009809
0.00101128
0.00103537
0.00105447
0.00106965
0.0010817
0.00109129
0.00109895
0.00110511
0.00111016
0.00111447
0.00111843
0.00112252
0.000760915
0.000844314
0.000929786
0.001
0.00105634
0.00110141
0.00113751
0.00116653
0.00118992
0.00120883
0.0012242
0.00123675
0.00124709
0.00125574
0.00126314
0.00126972
0.00127585
0.00128188
0.000824986
0.000915176
0.00100711
0.00108427
0.00114709
0.00119789
0.001239
0.00127238
0.0012996
0.00132189
0.00134027
0.00135553
0.00136835
0.0013793
0.00138888
0.00139753
0.0014056
0.00141333
0.000878413
0.00097291
0.0010674
0.00114859
0.00121594
0.0012712
0.00131642
0.00135351
0.00138405
0.00140932
0.00143036
0.00144805
0.00146308
0.00147609
0.00148759
0.00149802
0.00150768
0.00151671
0.00091949
0.00101782
0.00111202
0.00119424
0.00126377
0.00132179
0.00136992
0.00140985
0.00144305
0.00147078
0.00149409
0.00151385
0.0015308
0.00154556
0.00155866
0.00157051
0.00158138
0.00159124
0.000945562
0.00104762
0.0011404
0.00122142
0.00129084
0.00134969
0.00139924
0.00144087
0.00147588
0.00150542
0.00153046
0.00155186
0.00157033
0.00158648
0.00160081
0.0016137
0.00162535
0.00163562
0.000954201
0.00105705
0.00114782
0.00122661
0.00129447
0.00135263
0.00140224
0.00144443
0.0014803
0.00151087
0.00153701
0.00155949
0.00157898
0.00159605
0.00161116
0.00162465
0.00163663
0.00164691
0.000951244
0.00105145
0.00114007
0.00121685
0.00128292
0.0013397
0.00138843
0.00143019
0.00146597
0.00149668
0.00152312
0.00154598
0.00156585
0.00158326
0.00159862
0.00161223
0.00162413
0.00163404
0.000936434
0.00102532
0.00110724
0.00118008
0.00124351
0.00129836
0.00134564
0.00138634
0.00142138
0.00145159
0.00147769
0.00150031
0.00152
0.0015372
0.00155229
0.0015655
0.00157685
0.00158595
0.000912939
0.000980071
0.0010461
0.00110849
0.00116541
0.00121617
0.00126082
0.00129974
0.0013335
0.00136271
0.00138798
0.00140987
0.00142884
0.0014453
0.00145957
0.00147187
0.00148222
0.00149016
0.000887097
0.000926883
0.000968314
0.00101041
0.0010518
0.00109132
0.00112817
0.00116184
0.00119211
0.00121901
0.00124268
0.00126339
0.00128141
0.00129701
0.00131043
0.00132186
0.00133134
0.00133848
0.000865415
0.000881178
0.000898481
0.000917256
0.000937161
0.000957775
0.000978667
0.000999399
0.00101957
0.00103885
0.001057
0.00107386
0.00108935
0.00110343
0.00111612
0.00112745
0.00113741
0.00114581
0.000853447
0.000856016
0.000859733
0.000864604
0.000870567
0.000877546
0.000885462
0.000894222
0.000903714
0.000913818
0.000924408
0.000935356
0.000946536
0.000957832
0.000969139
0.000980364
0.000991421
0.00100218
0.000857299
0.000864081
0.000872194
0.000881681
0.000892459
0.000904403
0.000917366
0.000931182
0.000945673
0.000960669
0.000975971
0.000991396
0.00100679
0.00102205
0.00103707
0.00105181
0.00106616
0.00107985
0.000880048
0.000912463
0.000947061
0.000983253
0.00102008
0.00105666
0.00109232
0.00112659
0.00115914
0.00118976
0.00121846
0.00124536
0.0012706
0.00129437
0.0013168
0.00133798
0.00135791
0.0013763
0.000913625
0.000981265
0.00104759
0.0011104
0.00116825
0.00122075
0.00126809
0.00131073
0.00134921
0.00138406
0.00141579
0.00144485
0.00147163
0.00149647
0.00151959
0.00154114
0.0015611
0.0015793
0.000945386
0.00104089
0.00112664
0.00120196
0.00126758
0.00132486
0.00137502
0.0014191
0.00145801
0.00149254
0.00152337
0.00155109
0.00157619
0.00159907
0.00162007
0.00163941
0.00165718
0.00167331
0.000952758
0.00105488
0.00114539
0.00122418
0.00129215
0.00135067
0.00140099
0.00144426
0.0014816
0.001514
0.0015423
0.00156721
0.00158932
0.0016091
0.00162693
0.00164311
0.0016578
0.00167102
0.000918794
0.00101474
0.00110635
0.00118622
0.00125384
0.00131062
0.00135818
0.00139808
0.00143172
0.00146029
0.00148473
0.00150582
0.00152416
0.00154027
0.00155453
0.00156724
0.00157858
0.0015886
0.00084677
0.000934942
0.0010246
0.00110054
0.00116291
0.00121391
0.00125563
0.00128993
0.0013183
0.00134194
0.00136177
0.00137853
0.00139283
0.00140511
0.00141574
0.00142501
0.00143308
0.00144003
0.000747349
0.000824235
0.000904371
0.000970054
0.00102276
0.00106503
0.001099
0.00112642
0.00114866
0.00116679
0.00118165
0.00119389
0.00120404
0.00121249
0.00121957
0.00122551
0.00123048
0.00123454
0.000620366
0.000678615
0.000742483
0.00079392
0.000834422
0.000866279
0.000891335
0.000911052
0.000926582
0.000938825
0.000948478
0.000956081
0.000962059
0.000966741
0.000970383
0.000973181
0.000975276
0.000976732
0.000453079
0.000490664
0.000535606
0.000570756
0.000597339
0.000617477
0.000632674
0.000644059
0.000652517
0.000658726
0.000663202
0.000666336
0.000668431
0.000669719
0.000670377
0.00067054
0.00067031
0.000669754
0.000236565
0.000259097
0.00028368
0.000300835
0.000312328
0.000320209
0.00032556
0.000329059
0.000331209
0.000332376
0.000332819
0.000332731
0.000332254
0.000331495
0.000330533
0.000329427
0.000328222
0.000326968
2.72444e-05
3.01595e-05
3.32002e-05
3.53674e-05
3.69419e-05
3.81089e-05
3.89864e-05
3.96573e-05
4.01761e-05
4.05803e-05
4.08966e-05
4.11447e-05
4.13391e-05
4.14909e-05
4.16083e-05
4.1698e-05
4.17644e-05
4.18123e-05
9.93236e-06
2.92368e-05
3.32879e-05
3.62032e-05
3.84783e-05
4.03598e-05
4.19955e-05
4.34854e-05
4.4898e-05
4.62787e-05
4.76568e-05
4.90509e-05
5.04393e-05
5.18177e-05
5.31803e-05
5.45215e-05
5.58357e-05
5.71183e-05
5.83654e-05
5.95737e-05
6.07408e-05
6.18648e-05
6.29442e-05
6.39776e-05
6.49646e-05
6.59052e-05
6.68004e-05
6.76525e-05
6.84704e-05
6.93902e-05
7.02355e-05
7.10009e-05
7.16845e-05
7.22835e-05
7.27944e-05
7.32136e-05
7.35371e-05
7.37614e-05
7.38828e-05
7.3898e-05
7.38043e-05
7.35989e-05
7.32795e-05
7.28445e-05
7.22928e-05
7.1624e-05
7.08376e-05
6.99344e-05
6.8917e-05
6.77993e-05
6.66193e-05
6.54825e-05
6.46783e-05
6.39929e-05
6.33021e-05
6.25914e-05
6.18642e-05
6.11282e-05
6.03924e-05
5.96657e-05
5.89568e-05
5.82733e-05
5.76223e-05
5.70096e-05
5.64396e-05
5.5916e-05
5.54408e-05
5.50152e-05
5.46391e-05
5.43118e-05
5.40315e-05
5.37959e-05
5.36021e-05
5.34469e-05
5.33269e-05
5.32385e-05
5.31782e-05
5.31425e-05
5.31279e-05
5.31313e-05
5.31496e-05
5.31801e-05
5.32204e-05
5.3268e-05
5.33211e-05
5.33779e-05
5.34368e-05
5.34965e-05
5.35559e-05
5.36141e-05
5.36701e-05
5.37235e-05
5.37737e-05
5.38203e-05
5.3863e-05
5.39016e-05
5.39359e-05
5.39658e-05
5.39914e-05
5.40126e-05
5.40294e-05
5.40419e-05
5.40503e-05
5.40545e-05
5.40548e-05
5.40513e-05
5.4044e-05
5.40333e-05
5.40185e-05
5.39995e-05
5.39761e-05
5.39484e-05
5.39167e-05
5.38811e-05
5.38421e-05
5.38e-05
5.37552e-05
5.3708e-05
5.36586e-05
5.36073e-05
5.35543e-05
5.34997e-05
5.34436e-05
5.33861e-05
5.33274e-05
5.32675e-05
5.32065e-05
5.31444e-05
5.30812e-05
5.30171e-05
5.2952e-05
5.2886e-05
5.2819e-05
5.27513e-05
5.26826e-05
5.26131e-05
5.25428e-05
5.24718e-05
5.23999e-05
5.23273e-05
5.22539e-05
5.21798e-05
5.2105e-05
5.20294e-05
5.19532e-05
5.18762e-05
5.17986e-05
5.17202e-05
5.16412e-05
5.15614e-05
5.1481e-05
5.13997e-05
5.13178e-05
5.12351e-05
5.11516e-05
5.10673e-05
5.09821e-05
5.08961e-05
5.08091e-05
5.07212e-05
5.06322e-05
5.05421e-05
5.04507e-05
5.03579e-05
5.02634e-05
5.01671e-05
5.00685e-05
4.99673e-05
4.98627e-05
4.97541e-05
4.96402e-05
4.95196e-05
4.93901e-05
4.92483e-05
4.90895e-05
4.89056e-05
4.86844e-05
4.83982e-05
4.80238e-05
4.73791e-05
1.51841e-05
8.58779e-05
0.000131435
0.000158309
0.000177056
0.000191271
0.000202579
0.000212001
0.000220298
0.000228056
0.000235723
0.000243628
0.00025201
0.000261038
0.000270818
0.000281415
0.000292867
0.000305188
0.000318374
0.000332397
0.00034721
0.000362739
0.000378878
0.000395488
0.00041239
0.000429371
0.000446179
0.00046251
0.000477934
0.000492291
0.000506346
0.000520092
0.000533433
0.000546258
0.000558456
0.000569914
0.000580519
0.000590159
0.000598726
0.000606113
0.00061222
0.000616951
0.000620214
0.000621926
0.000622011
0.000620402
0.000617045
0.000611904
0.000604976
0.000596299
0.000585939
0.000574051
0.000561297
0.000547684
0.000533247
0.000518095
0.000502356
0.00048617
0.000469676
0.000453016
0.000436325
0.000419733
0.00040336
0.000387318
0.000371702
0.000356598
0.000342074
0.000328185
0.000314971
0.000302458
0.00029066
0.00027958
0.000269209
0.000259532
0.000250528
0.000242169
0.000234424
0.00022726
0.000220642
0.000214536
0.000208906
0.000203718
0.00019894
0.00019454
0.000190488
0.000186757
0.00018332
0.000180153
0.000177233
0.00017454
0.000172054
0.000169758
0.000167635
0.00016567
0.00016385
0.000162163
0.000160597
0.000159141
0.000157787
0.000156525
0.000155347
0.000154247
0.000153218
0.000152253
0.000151347
0.000150495
0.000149692
0.000148926
0.000148148
0.00014737
0.000146621
0.00014591
0.00014524
0.000144611
0.000144021
0.000143469
0.000142949
0.000142459
0.000141994
0.000141551
0.000141128
0.000140722
0.00014033
0.000139952
0.000139585
0.000139229
0.000138882
0.000138543
0.000138211
0.000137886
0.000137567
0.000137253
0.000136944
0.000136638
0.000136337
0.000136038
0.000135742
0.000135449
0.000135158
0.000134868
0.00013458
0.000134293
0.000134007
0.000133722
0.000133437
0.000133152
0.000132867
0.000132581
0.000132295
0.000132007
0.000131719
0.000131429
0.000131138
0.000130845
0.000130551
0.000130254
0.000129955
0.000129653
0.000129348
0.000129039
0.000128727
0.000128409
0.000128086
0.000127755
0.000127415
0.000127064
0.000126698
0.000126315
0.000125907
0.000125469
0.000124988
0.00012445
0.000123831
0.000123094
0.000122179
0.000120984
0.000119308
0.000116922
0.000112832
0.000108557
1.88477e-05
0.000127645
0.000218383
0.000275707
0.000316152
0.000347284
0.000372586
0.000394021
0.000412925
0.000430295
0.000446894
0.000463282
0.000479859
0.000496884
0.000514509
0.000532805
0.000551789
0.000571437
0.000591697
0.000612499
0.000633755
0.000655368
0.000677229
0.000699222
0.000721224
0.000743112
0.000764755
0.000786021
0.000806768
0.000827012
0.000846958
0.000866519
0.000885551
0.000903897
0.000921397
0.000937891
0.000953221
0.000967234
0.000979782
0.000990727
0.000999941
0.00100731
0.00101273
0.00101612
0.0010174
0.00101653
0.00101348
0.00100824
0.00100083
0.000991275
0.000979652
0.000966032
0.000950896
0.00093433
0.000916427
0.000897314
0.000877138
0.000856059
0.00083424
0.000811849
0.000789053
0.000766017
0.000742902
0.000719863
0.000697046
0.000674586
0.000652607
0.000631218
0.000610513
0.000590572
0.000571457
0.000553215
0.000535878
0.000519463
0.000503974
0.000489405
0.000475738
0.000462948
0.000451005
0.000439872
0.000429511
0.00041988
0.000410936
0.000402638
0.000394942
0.000387809
0.000381199
0.000375073
0.000369397
0.000364137
0.00035926
0.000354738
0.000350542
0.000346647
0.00034303
0.000339667
0.00033654
0.000333629
0.000330916
0.000328387
0.000326025
0.000323818
0.000321753
0.000319819
0.000318004
0.000316298
0.000314692
0.000313175
0.000311727
0.00031033
0.000308941
0.000307589
0.000306283
0.000305024
0.000303815
0.000302655
0.000301544
0.00030048
0.000299462
0.000298488
0.000297554
0.000296659
0.0002958
0.000294974
0.000294179
0.000293413
0.000292672
0.000291956
0.000291261
0.000290586
0.00028993
0.000289289
0.000288664
0.000288051
0.000287451
0.000286861
0.000286281
0.00028571
0.000285146
0.000284588
0.000284037
0.000283491
0.000282949
0.000282411
0.000281875
0.000281342
0.000280811
0.00028028
0.000279749
0.000279218
0.000278686
0.000278152
0.000277615
0.000277076
0.000276533
0.000275985
0.000275432
0.000274874
0.000274309
0.000273736
0.000273154
0.000272561
0.000271954
0.000271331
0.000270688
0.000270019
0.000269318
0.000268577
0.000267782
0.000266917
0.000265959
0.000264875
0.000263615
0.000262103
0.000260215
0.00025775
0.000254304
0.000249264
0.000240766
0.000227876
2.16008e-05
0.000157052
0.000288603
0.000375798
0.000437028
0.000483262
0.000519959
0.000550129
0.000575709
0.000598104
0.000618385
0.000637374
0.000655681
0.00067374
0.000691844
0.000710181
0.000728861
0.000747948
0.00076747
0.000787435
0.000807838
0.00082866
0.000849873
0.000871439
0.000893304
0.000915402
0.000937647
0.000959935
0.000982151
0.00100427
0.00102629
0.00104805
0.00106936
0.00109004
0.00110988
0.0011287
0.00114632
0.00116256
0.00117724
0.00119021
0.00120131
0.00121044
0.00121746
0.0012223
0.00122488
0.00122515
0.00122311
0.00121875
0.00121209
0.00120317
0.00119207
0.00117892
0.00116407
0.0011477
0.00112993
0.0011109
0.00109075
0.00106964
0.00104772
0.00102515
0.00100206
0.000978611
0.000954939
0.000931182
0.000907472
0.000883936
0.000860695
0.000837862
0.000815542
0.000793829
0.000772806
0.000752545
0.000733103
0.000714525
0.000696841
0.00068007
0.000664217
0.000649278
0.000635238
0.000622074
0.000609758
0.000598256
0.00058753
0.000577539
0.000568244
0.000559601
0.000551571
0.000544112
0.000537185
0.000530753
0.00052478
0.000519232
0.000514078
0.000509287
0.000504833
0.000500689
0.000496831
0.000493236
0.000489885
0.000486757
0.000483836
0.000481105
0.000478549
0.000476153
0.000473905
0.000471793
0.000469805
0.000467929
0.000466154
0.000464464
0.00046284
0.000461249
0.000459708
0.000458215
0.00045677
0.000455371
0.000454018
0.000452711
0.00045145
0.000450232
0.000449058
0.000447926
0.000446835
0.000445782
0.000444766
0.000443785
0.000442836
0.000441918
0.000441028
0.000440164
0.000439324
0.000438506
0.000437707
0.000436926
0.000436162
0.000435411
0.000434674
0.000433949
0.000433233
0.000432527
0.000431829
0.000431138
0.000430452
0.000429773
0.000429097
0.000428424
0.000427754
0.000427085
0.000426417
0.000425749
0.00042508
0.000424408
0.000423734
0.000423055
0.000422373
0.000421685
0.00042099
0.000420288
0.000419578
0.000418858
0.000418126
0.000417381
0.000416619
0.000415838
0.000415033
0.000414197
0.000413324
0.000412403
0.00041142
0.000410356
0.000409187
0.000407874
0.000406365
0.000404578
0.000402386
0.000399582
0.000395783
0.00039035
0.000381736
0.000368468
2.38476e-05
0.000177821
0.000343012
0.000456023
0.0005343
0.000591421
0.000634801
0.000668691
0.00069585
0.000718283
0.000737536
0.000754805
0.000770995
0.000786763
0.000802564
0.0008187
0.000835363
0.000852673
0.000870698
0.000889475
0.000909017
0.000929317
0.000950348
0.000972063
0.000994398
0.00101727
0.00104056
0.00106416
0.00108791
0.00111174
0.00113552
0.00115907
0.00118218
0.00120463
0.00122622
0.00124673
0.00126595
0.00128368
0.00129974
0.00131393
0.00132609
0.00133607
0.00134375
0.00134903
0.00135183
0.00135211
0.00134985
0.00134508
0.00133785
0.00132823
0.00131632
0.00130235
0.00128668
0.00126953
0.00125109
0.00123153
0.00121102
0.00118974
0.00116785
0.00114551
0.00112285
0.00109999
0.00107704
0.0010541
0.00103126
0.00100861
0.000986229
0.00096419
0.000942574
0.000921452
0.000900895
0.00088097
0.000861736
0.000843245
0.000825542
0.000808659
0.000792618
0.000777433
0.000763103
0.000749622
0.000736973
0.000725133
0.000714072
0.000703757
0.000694152
0.000685217
0.000676914
0.000669203
0.000662044
0.0006554
0.000649233
0.000643511
0.000638198
0.000633264
0.00062868
0.000624419
0.000620455
0.000616765
0.000613328
0.000610122
0.00060713
0.000604335
0.00060172
0.00059927
0.000596974
0.000594817
0.000592788
0.000590875
0.000589069
0.000587356
0.000585722
0.000584144
0.000582614
0.000581131
0.000579692
0.000578295
0.00057694
0.000575624
0.000574347
0.00057311
0.000571912
0.000570751
0.000569628
0.000568541
0.000567489
0.00056647
0.000565483
0.000564526
0.000563597
0.000562695
0.000561816
0.00056096
0.000560124
0.000559307
0.000558506
0.00055772
0.000556947
0.000556187
0.000555437
0.000554697
0.000553964
0.000553239
0.00055252
0.000551807
0.000551097
0.000550391
0.000549687
0.000548984
0.000548282
0.00054758
0.000546876
0.00054617
0.000545461
0.000544748
0.00054403
0.000543306
0.000542575
0.000541836
0.000541089
0.000540331
0.00053956
0.000538776
0.000537975
0.000537153
0.000536307
0.000535431
0.000534517
0.000533556
0.000532534
0.000531433
0.000530229
0.000528888
0.00052736
0.000525571
0.000523409
0.000520696
0.00051712
0.000512164
0.000504763
0.000493945
2.57628e-05
0.00019247
0.000383489
0.000516574
0.000607015
0.000670487
0.000716366
0.000750314
0.00077609
0.00079641
0.000813313
0.000828324
0.000842539
0.00085671
0.000871326
0.000886682
0.000902948
0.000920212
0.000938511
0.000957848
0.000978206
0.000999546
0.00102181
0.00104492
0.00106879
0.00109331
0.00111834
0.00114375
0.00116938
0.00119508
0.00122073
0.00124613
0.00127107
0.00129533
0.0013187
0.00134094
0.00136182
0.00138111
0.00139858
0.00141401
0.00142719
0.00143795
0.00144611
0.00145154
0.00145415
0.00145385
0.00145063
0.00144451
0.00143556
0.00142388
0.00140961
0.00139311
0.0013748
0.00135494
0.00133379
0.00131161
0.00128865
0.00126517
0.00124138
0.00121749
0.00119367
0.00117004
0.00114672
0.00112378
0.00110127
0.00107923
0.00105768
0.00103664
0.00101612
0.000996153
0.000976749
0.000957939
0.000939754
0.000922229
0.000905397
0.00088929
0.000873935
0.000859351
0.000845551
0.000832539
0.000820309
0.000808849
0.00079814
0.000788155
0.000778865
0.000770234
0.000762227
0.000754807
0.000747935
0.000741574
0.000735688
0.00073024
0.000725199
0.000720531
0.000716208
0.000712202
0.000708486
0.000705037
0.000701833
0.000698854
0.00069608
0.000693495
0.000691083
0.000688828
0.000686719
0.000684741
0.000682885
0.000681139
0.000679492
0.000677935
0.000676456
0.000675039
0.000673667
0.000672338
0.00067105
0.000669798
0.000668581
0.000667398
0.000666248
0.000665131
0.000664045
0.000662992
0.000661969
0.000660977
0.000660015
0.000659081
0.000658175
0.000657295
0.000656439
0.000655607
0.000654795
0.000654004
0.00065323
0.000652473
0.000651731
0.000651003
0.000650286
0.00064958
0.000648883
0.000648195
0.000647514
0.000646839
0.00064617
0.000645504
0.000644843
0.000644183
0.000643526
0.00064287
0.000642213
0.000641556
0.000640898
0.000640237
0.000639572
0.000638904
0.00063823
0.000637551
0.000636865
0.000636172
0.000635469
0.000634757
0.000634033
0.000633295
0.000632542
0.000631769
0.000630974
0.000630151
0.000629294
0.000628393
0.000627438
0.000626412
0.000625294
0.000624056
0.000622654
0.000621027
0.000619085
0.000616686
0.000613597
0.000609439
0.000603527
0.000595366
2.74393e-05
0.000202735
0.000412365
0.000559568
0.000657507
0.000723772
0.000769674
0.000802295
0.00082634
0.000845099
0.000860912
0.000875405
0.000889656
0.000904338
0.000919841
0.000936367
0.000954009
0.000972794
0.000992714
0.00101374
0.00103582
0.0010589
0.00108291
0.00110776
0.00113334
0.00115954
0.00118624
0.00121329
0.00124053
0.00126787
0.0012952
0.00132237
0.00134919
0.00137545
0.00140092
0.00142533
0.00144844
0.00146995
0.00148959
0.00150708
0.00152217
0.00153459
0.00154412
0.00155055
0.00155372
0.0015535
0.00154984
0.0015427
0.00153213
0.00151824
0.0015012
0.00148152
0.0014596
0.00143575
0.00141034
0.00138371
0.00135625
0.00132833
0.0013003
0.00127245
0.00124505
0.00121832
0.00119241
0.00116743
0.00114343
0.00112043
0.0010984
0.00107731
0.0010571
0.00103772
0.00101911
0.00100123
0.000984044
0.000967543
0.000951721
0.000936581
0.000922134
0.000908393
0.00089537
0.000883073
0.000871504
0.000860658
0.000850524
0.000841084
0.000832314
0.000824185
0.000816666
0.000809721
0.000803314
0.00079741
0.000791971
0.000786963
0.000782352
0.000778105
0.000774193
0.000770586
0.00076726
0.000764189
0.00076135
0.000758725
0.000756293
0.000754037
0.000751942
0.000749993
0.000748177
0.000746483
0.000744898
0.000743413
0.000742018
0.000740704
0.000739461
0.000738277
0.000737136
0.000736032
0.000734962
0.000733925
0.000732917
0.000731937
0.000730985
0.000730059
0.000729158
0.000728283
0.000727433
0.000726607
0.000725804
0.000725024
0.000724266
0.000723529
0.000722811
0.000722112
0.00072143
0.000720764
0.000720113
0.000719475
0.000718849
0.000718234
0.000717628
0.000717032
0.000716442
0.000715859
0.000715282
0.00071471
0.000714141
0.000713576
0.000713013
0.000712452
0.000711893
0.000711333
0.000710773
0.000710212
0.000709649
0.000709084
0.000708515
0.000707943
0.000707366
0.000706783
0.000706195
0.000705599
0.000704995
0.000704383
0.000703759
0.000703124
0.000702475
0.00070181
0.000701124
0.000700415
0.000699676
0.000698901
0.000698079
0.000697199
0.000696242
0.000695186
0.000693997
0.000692628
0.000691009
0.000689037
0.000686547
0.000683283
0.000678823
0.000672964
2.89348e-05
0.000209939
0.000432183
0.000588362
0.000690251
0.000757315
0.000802628
0.00083444
0.000858092
0.000877126
0.000893876
0.000909836
0.000925909
0.000942601
0.00096017
0.000978729
0.000998312
0.00101891
0.00104051
0.00106307
0.00108653
0.00111086
0.00113599
0.00116184
0.00118834
0.00121538
0.00124287
0.0012707
0.00129872
0.00132701
0.00135557
0.00138427
0.00141296
0.00144142
0.00146939
0.00149661
0.00152275
0.00154748
0.00157047
0.00159136
0.00160979
0.00162543
0.00163795
0.00164707
0.00165251
0.00165406
0.00165158
0.00164496
0.00163417
0.00161927
0.00160053
0.00157844
0.00155334
0.00152561
0.00149566
0.00146397
0.00143103
0.00139734
0.0013634
0.00132968
0.00129659
0.00126449
0.00123365
0.00120429
0.00117653
0.00115042
0.00112596
0.00110306
0.00108164
0.00106156
0.0010427
0.00102492
0.0010081
0.000992146
0.000976991
0.000962579
0.000948879
0.000935874
0.000923557
0.000911927
0.000900984
0.000890726
0.000881144
0.000872228
0.000863959
0.000856313
0.000849263
0.000842776
0.00083682
0.000831359
0.000826358
0.000821781
0.000817594
0.000813765
0.000810263
0.000807058
0.000804124
0.000801435
0.00079897
0.000796706
0.000794625
0.00079271
0.000790944
0.000789313
0.000787805
0.000786407
0.000785108
0.000783899
0.000782771
0.000781715
0.000780721
0.000779782
0.000778882
0.000778015
0.000777178
0.000776369
0.000775585
0.000774824
0.000774086
0.00077337
0.000772673
0.000771997
0.00077134
0.000770701
0.00077008
0.000769477
0.00076889
0.000768319
0.000767762
0.00076722
0.00076669
0.000766173
0.000765666
0.00076517
0.000764682
0.000764203
0.00076373
0.000763264
0.000762804
0.000762348
0.000761896
0.000761448
0.000761002
0.000760558
0.000760116
0.000759675
0.000759234
0.000758793
0.000758352
0.000757909
0.000757464
0.000757017
0.000756567
0.000756113
0.000755656
0.000755193
0.000754725
0.000754252
0.000753771
0.000753283
0.000752786
0.000752279
0.000751761
0.000751229
0.00075068
0.000750113
0.000749522
0.000748901
0.000748244
0.000747541
0.000746779
0.00074594
0.000745
0.000743924
0.000742664
0.000741148
0.00073927
0.000736864
0.000733685
0.000729683
3.02858e-05
0.000215045
0.000445305
0.000606673
0.000710437
0.000777793
0.000823184
0.000855569
0.000880498
0.000901421
0.000920451
0.000938838
0.000957283
0.000976152
0.000995619
0.00101576
0.00103659
0.00105812
0.00108033
0.00110321
0.00112674
0.0011509
0.00117567
0.00120102
0.00122692
0.00125332
0.00128018
0.00130744
0.00133513
0.00136354
0.00139274
0.00142266
0.00145314
0.00148398
0.00151489
0.00154556
0.00157562
0.00160468
0.00163231
0.00165807
0.00168151
0.00170218
0.00171965
0.00173351
0.00174338
0.00174892
0.00174987
0.001746
0.0017372
0.00172349
0.00170515
0.00168253
0.00165591
0.00162568
0.00159229
0.00155627
0.00151821
0.00147874
0.0014385
0.00139812
0.00135819
0.00131926
0.00128179
0.00124614
0.0012126
0.00118131
0.00115236
0.00112571
0.00110125
0.00107885
0.0010583
0.00103939
0.00102192
0.00100569
0.000990549
0.000976349
0.000962993
0.000950408
0.000938547
0.000927381
0.000916893
0.000907073
0.000897909
0.000889392
0.000881505
0.000874229
0.000867539
0.000861408
0.000855802
0.000850689
0.000846033
0.0008418
0.000837955
0.000834466
0.000831299
0.000828426
0.000825818
0.000823451
0.000821299
0.000819343
0.000817562
0.000815938
0.000814456
0.0008131
0.000811858
0.000810719
0.000809671
0.000808704
0.000807811
0.000806982
0.00080621
0.000805487
0.0008048
0.000804144
0.000803516
0.000802911
0.000802329
0.000801768
0.000801225
0.0008007
0.000800192
0.000799699
0.000799221
0.000798758
0.000798307
0.00079787
0.000797445
0.000797031
0.000796628
0.000796235
0.000795851
0.000795476
0.000795109
0.000794749
0.000794395
0.000794046
0.000793703
0.000793364
0.000793029
0.000792697
0.000792367
0.00079204
0.000791715
0.00079139
0.000791067
0.000790744
0.00079042
0.000790097
0.000789772
0.000789446
0.000789118
0.000788789
0.000788456
0.000788121
0.000787783
0.00078744
0.000787093
0.000786742
0.000786385
0.000786022
0.000785652
0.000785274
0.000784887
0.00078449
0.00078408
0.000783655
0.000783213
0.000782749
0.000782257
0.000781732
0.000781163
0.000780539
0.000779842
0.000779051
0.000778132
0.000777042
0.000775715
0.000774055
0.000771926
0.000769347
3.15106e-05
0.000218629
0.000453558
0.000617772
0.000722636
0.000790691
0.0008372
0.000871344
0.000898537
0.000921946
0.000943402
0.00096394
0.000984121
0.00100424
0.00102446
0.00104484
0.00106543
0.00108625
0.00110733
0.00112869
0.00115037
0.00117241
0.00119486
0.00121777
0.00124121
0.0012652
0.0012898
0.00131503
0.00134133
0.00136907
0.00139838
0.0014292
0.00146139
0.00149474
0.00152895
0.00156365
0.00159843
0.0016328
0.00166627
0.0016983
0.00172833
0.00175579
0.00178012
0.00180078
0.00181727
0.00182909
0.00183586
0.00183721
0.00183291
0.00182298
0.00180758
0.00178688
0.0017611
0.00173058
0.00169576
0.00165719
0.0016155
0.0015714
0.00152564
0.00147901
0.00143227
0.00138615
0.00134132
0.00129835
0.00125771
0.00121973
0.00118464
0.00115251
0.00112332
0.00109694
0.00107318
0.00105177
0.00103244
0.00101491
0.000998922
0.000984237
0.000970665
0.000958054
0.000946293
0.000935303
0.000925033
0.000915449
0.000906527
0.00089825
0.0008906
0.000883556
0.000877097
0.000871195
0.000865821
0.000860941
0.000856521
0.000852527
0.000848922
0.000845675
0.000842751
0.00084012
0.000837754
0.000835625
0.00083371
0.000831986
0.000830432
0.000829031
0.000827767
0.000826624
0.000825589
0.00082465
0.000823797
0.00082302
0.000822311
0.000821661
0.000821064
0.00082051
0.000819992
0.000819504
0.000819041
0.000818601
0.000818181
0.00081778
0.000817395
0.000817026
0.00081667
0.000816327
0.000815996
0.000815676
0.000815367
0.000815067
0.000814775
0.000814493
0.000814217
0.000813949
0.000813688
0.000813432
0.000813182
0.000812936
0.000812695
0.000812457
0.000812223
0.000811992
0.000811763
0.000811536
0.000811311
0.000811087
0.000810864
0.000810642
0.00081042
0.000810198
0.000809976
0.000809753
0.000809529
0.000809304
0.000809078
0.000808849
0.000808619
0.000808387
0.000808152
0.000807914
0.000807673
0.000807428
0.000807179
0.000806925
0.000806666
0.000806402
0.000806131
0.000805852
0.000805564
0.000805266
0.000804955
0.000804628
0.000804283
0.000803913
0.000803515
0.000803078
0.000802594
0.000802048
0.000801422
0.000800689
0.000799815
0.000798749
0.000797424
0.000795881
3.26107e-05
0.000220863
0.000458018
0.000623874
0.000729856
0.000799237
0.000847575
0.000883933
0.000913426
0.000938923
0.000962029
0.000983641
0.00100426
0.00102416
0.0010435
0.00106239
0.00108087
0.00109903
0.00111693
0.00113467
0.00115237
0.00117017
0.00118825
0.00120677
0.00122592
0.00124588
0.00126681
0.00128884
0.00131296
0.00133947
0.00136847
0.00139993
0.00143371
0.0014696
0.00150726
0.00154633
0.00158632
0.00162671
0.0016669
0.00170626
0.00174413
0.00177982
0.00181262
0.00184187
0.00186692
0.00188707
0.00190191
0.00191068
0.00191332
0.00190974
0.00189984
0.00188364
0.00186127
0.00183297
0.00179915
0.00176031
0.00171711
0.00167028
0.00162064
0.00156909
0.00151653
0.00146386
0.00141194
0.00136155
0.00131339
0.001268
0.00122579
0.00118701
0.00115178
0.00112006
0.00109171
0.00106649
0.00104409
0.00102417
0.00100639
0.000990429
0.000975984
0.000962815
0.000950726
0.000939571
0.000929242
0.000919667
0.000910797
0.000902595
0.000895035
0.000888092
0.000881741
0.000875955
0.000870702
0.000865952
0.000861669
0.000857819
0.000854364
0.000851272
0.000848507
0.000846038
0.000843836
0.000841872
0.00084012
0.000838559
0.000837167
0.000835925
0.000834816
0.000833826
0.000832939
0.000832146
0.000831434
0.000830794
0.000830218
0.000829698
0.000829227
0.000828798
0.000828402
0.000828036
0.000827694
0.000827374
0.000827074
0.000826791
0.000826523
0.000826268
0.000826026
0.000825795
0.000825573
0.00082536
0.000825156
0.000824958
0.000824768
0.000824583
0.000824404
0.00082423
0.000824061
0.000823895
0.000823734
0.000823575
0.00082342
0.000823267
0.000823116
0.000822966
0.000822819
0.000822673
0.000822527
0.000822383
0.000822238
0.000822095
0.000821951
0.000821807
0.000821663
0.000821518
0.000821372
0.000821226
0.000821078
0.000820929
0.000820779
0.000820627
0.000820473
0.000820317
0.000820158
0.000819997
0.000819833
0.000819666
0.000819495
0.000819321
0.000819141
0.000818957
0.000818766
0.000818568
0.000818361
0.000818144