/*--------------------------------*- C++ -*----------------------------------*\
| =========                 |                                                 |
| \\      /  F ield         | OpenFOAM: The Open Source CFD Toolbox           |
|  \\    /   O peration     | Version:  2412                                  |
|   \\  /    A nd           | Website:  www.openfoam.com                      |
|    \\/     M anipulation  |                                                 |
\*---------------------------------------------------------------------------*/
FoamFile
{
    version     2.0;
    format      ascii;
    arch        "LSB;label=32;scalar=64";
    class       volScalarField;
    location    "0.01";
    object      p;
}
// * * * * * * * * * * * * * * * * * * * * * * * * * * * * * * * * * * * * * //

dimensions      [0 2 -2 0 0 0 0];

internalField   nonuniform List<scalar> 
12225
(
-9.45899
-8.86582
-8.20326
-7.64776
-7.14004
-6.68529
-6.28879
-5.94007
-5.63006
-5.35293
-5.10346
-4.87669
-4.66814
-4.47361
-4.28906
-4.11071
-3.93828
-3.77403
-9.8932
-8.92409
-8.23857
-7.68971
-7.18185
-6.72767
-6.33117
-5.98168
-5.67064
-5.39236
-5.14163
-4.91348
-4.70342
-4.50719
-4.32056
-4.13925
-3.95898
-3.76883
-10.0734
-8.9585
-8.28104
-7.74198
-7.23442
-6.78197
-6.38652
-6.03688
-5.72517
-5.44593
-5.19398
-4.96442
-4.75275
-4.55467
-4.36572
-4.18084
-3.9921
-3.77869
-10.0971
-8.97433
-8.30642
-7.77733
-7.27323
-6.82449
-6.43182
-6.08366
-5.77271
-5.49377
-5.24177
-5.01191
-4.79978
-4.60112
-4.41135
-4.22518
-4.03311
-3.82138
-10.0265
-8.9689
-8.30717
-7.78926
-7.29292
-6.8499
-6.46161
-6.11653
-5.80778
-5.53046
-5.27966
-5.05079
-4.83959
-4.64201
-4.45365
-4.26979
-4.08192
-3.88793
-9.88368
-8.93507
-8.28368
-7.77912
-7.29514
-6.86008
-6.47777
-6.13726
-5.83199
-5.55744
-5.30898
-5.08226
-4.87334
-4.67851
-4.49391
-4.31604
-4.13865
-3.96983
-9.67892
-8.86701
-8.2366
-7.74742
-7.28032
-6.85605
-6.48148
-6.14707
-5.84661
-5.57599
-5.33099
-5.10763
-4.90236
-4.71199
-4.53351
-4.36494
-4.20256
-4.06219
-9.42233
-8.76164
-8.16627
-7.69426
-7.24796
-6.83777
-6.47296
-6.14632
-5.85211
-5.58668
-5.34637
-5.12765
-4.92748
-4.74337
-4.57327
-4.41678
-4.27246
-4.16139
-9.12413
-8.61802
-8.07317
-7.62064
-7.19798
-6.80529
-6.45246
-6.13528
-5.84883
-5.58996
-5.35564
-5.14292
-4.94938
-4.77329
-4.61361
-4.47135
-4.34678
-4.26405
-8.7949
-8.43737
-7.95782
-7.52854
-7.13121
-6.75907
-6.42047
-6.11442
-5.83722
-5.58629
-5.35928
-5.15394
-4.96851
-4.80205
-4.65446
-4.52781
-4.42342
-4.36675
-8.44609
-8.22361
-7.8209
-7.42048
-7.04951
-6.70027
-6.37804
-6.08458
-5.81794
-5.57622
-5.35777
-5.16105
-4.98502
-4.82947
-4.69505
-4.58457
-4.49958
-4.46597
-8.1192
-8.00304
-7.67699
-7.30916
-6.96328
-6.63657
-6.33111
-6.05036
-5.79434
-5.56201
-5.35232
-5.1644
-4.99785
-4.853
-4.73101
-4.63501
-4.56608
-4.5506
-7.80513
-7.76957
-7.51967
-7.18898
-6.86838
-6.56485
-6.27747
-6.0103
-5.76549
-5.54312
-5.34276
-5.16414
-5.0074
-4.87335
-4.76347
-4.68081
-4.62646
-4.62375
-7.46962
-7.49652
-7.32547
-7.04141
-6.75045
-6.47358
-6.2083
-5.95789
-5.72657
-5.51605
-5.32671
-5.15889
-5.01326
-4.891
-4.79369
-4.72412
-4.68307
-4.68949
-7.12952
-7.19913
-7.09946
-6.86731
-6.60919
-6.36056
-6.12022
-5.88957
-5.67397
-5.47697
-5.29998
-5.14388
-5.00975
-4.89896
-4.81304
-4.75423
-4.72266
-4.7329
-6.80591
-6.90182
-6.85922
-6.67744
-6.4522
-6.22968
-6.01306
-5.80223
-5.60246
-5.41878
-5.25366
-5.10838
-4.98412
-4.88219
-4.80379
-4.75046
-4.72163
-4.72751
-6.52134
-6.6319
-6.62948
-6.48979
-6.29386
-6.09268
-5.89455
-5.69912
-5.51105
-5.33616
-5.17788
-5.03779
-4.91693
-4.81624
-4.73641
-4.6781
-4.64027
-4.62804
-6.30759
-6.4215
-6.43754
-6.32093
-6.14205
-5.95238
-5.76327
-5.5746
-5.39038
-5.21653
-5.05682
-4.91282
-4.7853
-4.67473
-4.58133
-4.50499
-4.445
-4.40146
-6.23062
-6.33683
-6.34188
-6.21364
-6.02389
-5.82384
-5.62418
-5.42436
-5.22795
-5.04074
-4.86608
-4.70492
-4.55742
-4.42351
-4.30284
-4.19451
-4.09807
-4.00903
-6.35306
-6.44677
-6.40889
-6.23053
-6.00147
-5.7709
-5.54419
-5.32007
-5.10288
-4.89704
-4.70454
-4.52572
-4.36031
-4.20786
-4.06779
-3.93919
-3.8219
-3.71012
-6.64999
-6.70701
-6.5992
-6.35655
-6.08306
-5.8182
-5.56106
-5.311
-5.07249
-4.84873
-4.64032
-4.44677
-4.26734
-4.10126
-3.94768
-3.8054
-3.67381
-3.54693
-7.08755
-7.06578
-6.85192
-6.53397
-6.21281
-5.90865
-5.61727
-5.34036
-5.08147
-4.84144
-4.61935
-4.41396
-4.224
-4.04822
-3.88539
-3.73418
-3.59376
-3.45871
-7.61268
-7.45545
-7.10644
-6.71658
-6.35209
-6.00944
-5.68647
-5.38684
-5.11126
-4.85801
-4.62512
-4.41077
-4.2132
-4.03071
-3.86178
-3.70494
-3.55913
-3.41958
-8.15397
-7.80667
-7.31959
-6.87644
-6.47625
-6.09895
-5.7497
-5.43196
-5.14283
-4.87887
-4.6375
-4.4164
-4.2133
-4.02615
-3.85318
-3.69278
-3.54375
-3.40199
-8.64497
-8.07585
-7.47746
-7.00182
-6.57046
-6.16354
-5.7941
-5.46264
-5.16312
-4.89117
-4.64377
-4.41807
-4.21137
-4.02134
-3.84602
-3.68367
-3.53298
-3.39048
-9.03984
-8.24736
-7.57921
-7.08457
-6.62596
-6.19682
-5.81364
-5.47268
-5.16601
-4.88881
-4.63766
-4.40926
-4.20061
-4.00918
-3.83286
-3.6698
-3.51863
-3.37643
-9.30833
-8.32835
-7.62786
-7.11985
-6.64117
-6.19829
-5.80668
-5.45979
-5.14891
-4.86891
-4.61599
-4.38655
-4.1774
-3.98587
-3.80972
-3.64705
-3.49641
-3.35541
-9.41498
-8.34322
-7.62898
-7.10579
-6.61623
-6.16688
-5.77072
-5.421
-5.10869
-4.82822
-4.57549
-4.34672
-4.13859
-3.94832
-3.77359
-3.61247
-3.46342
-3.32457
-9.2829
-8.31403
-7.59559
-7.05102
-6.55765
-6.10699
-5.70942
-5.3597
-5.04854
-4.76976
-4.51906
-4.29256
-4.08686
-3.89908
-3.7269
-3.56834
-3.4218
-3.28568
-8.75117
-8.22238
-7.55454
-6.99652
-6.50218
-6.05196
-5.65455
-5.30601
-4.99672
-4.72002
-4.4715
-4.24725
-4.04381
-3.85831
-3.68838
-3.53205
-3.38764
-3.25356
-5.71548
-5.72844
-5.74763
-5.77322
-5.80545
-5.84399
-5.88839
-5.93812
-5.99255
-6.05091
-6.11224
-6.17532
-6.23874
-6.30093
-6.36013
-6.41433
-6.46134
-6.49879
-6.52413
-6.53468
-6.52771
-6.50047
-6.45032
-6.37478
-6.2716
-6.1388
-5.97445
-5.77636
-5.5447
-5.27507
-4.96814
-4.62527
-4.24803
-3.83835
-3.39856
-2.93136
-2.43981
-1.9273
-1.39746
-0.854098
-0.301153
0.2574
0.817614
1.37563
1.92774
2.47044
3.00054
3.51516
4.01186
4.48881
4.94517
5.37921
5.78842
6.1714
6.52747
6.85643
7.15838
7.43375
7.68322
7.90765
8.10812
8.2858
8.44201
8.57809
8.69547
8.79556
8.8798
8.94957
9.00623
9.05108
9.08535
9.11023
9.12679
9.13606
9.13897
9.13638
9.12907
9.11775
9.10306
9.08557
9.06579
9.04417
9.02112
8.99697
8.97203
8.94657
8.92081
8.89493
8.8691
8.84346
8.81811
8.79314
8.76865
8.74471
8.72138
8.69872
8.67676
8.65553
8.63505
8.61531
8.59631
8.57806
8.56053
8.54372
8.5276
8.51218
8.49744
8.48343
8.46994
8.45688
8.44427
8.4321
8.4204
8.40918
8.3984
8.38805
8.37811
8.36855
8.35935
8.35047
8.34191
8.33363
8.32561
8.31785
8.31031
8.30298
8.29585
8.2889
8.28212
8.27549
8.269
8.26263
8.25639
8.25026
8.24422
8.23827
8.2324
8.2266
8.22086
8.21518
8.20955
8.20396
8.19841
8.19288
8.18738
8.18189
8.17643
8.17097
8.16552
8.16009
8.15465
8.14923
8.14382
8.13842
8.13303
8.12768
8.12236
8.11709
8.11189
8.10679
8.10181
8.09699
8.09239
8.08807
8.08413
8.08067
8.07785
8.07587
8.07498
8.07554
8.07805
8.08317
8.09188
8.10558
8.12643
8.15768
8.20516
8.27671
8.39318
8.54759
-5.65309
-5.67661
-5.70283
-5.72989
-5.76167
-5.80005
-5.84526
-5.89702
-5.95478
-6.01772
-6.08482
-6.15481
-6.22619
-6.2973
-6.36624
-6.43092
-6.48901
-6.538
-6.57521
-6.59781
-6.60285
-6.58735
-6.54837
-6.48301
-6.38857
-6.2626
-6.10323
-5.90946
-5.67807
-5.41288
-5.11321
-4.7788
-4.41038
-4.00941
-3.5779
-3.11833
-2.63361
-2.12699
-1.60199
-1.06231
-0.511801
0.0456323
0.606098
1.16578
1.72099
2.26824
2.80423
3.32597
3.83067
4.31577
4.77896
5.21846
5.6331
6.02198
6.38446
6.72024
7.02934
7.31206
7.56898
7.80087
8.00869
8.19358
8.35675
8.49951
8.62325
8.72934
8.81921
8.89423
8.95575
9.00509
9.04349
9.07214
9.09215
9.10456
9.11032
9.11031
9.10534
9.09614
9.08337
9.06761
9.04939
9.02919
9.00742
8.98443
8.96055
8.93605
8.91115
8.88607
8.86096
8.83597
8.81121
8.78679
8.7628
8.73931
8.7164
8.69412
8.67252
8.65161
8.63142
8.61195
8.59321
8.57518
8.55787
8.54124
8.5253
8.51
8.49533
8.48117
8.46761
8.45461
8.44219
8.43024
8.41877
8.40774
8.39713
8.38693
8.3771
8.36763
8.3585
8.34969
8.34119
8.33296
8.32499
8.31726
8.30976
8.30246
8.29536
8.28844
8.28168
8.27507
8.2686
8.26226
8.25603
8.24991
8.24389
8.23795
8.2321
8.22631
8.22058
8.21491
8.20928
8.2037
8.19815
8.19263
8.18713
8.18166
8.17619
8.17074
8.16529
8.15986
8.15442
8.149
8.14359
8.13818
8.1328
8.12744
8.12212
8.11684
8.11164
8.10652
8.10152
8.09669
8.09207
8.08772
8.08373
8.08022
8.07733
8.07525
8.07423
8.07462
8.07688
8.08164
8.0898
8.10263
8.12204
8.15073
8.19352
8.25564
8.35292
8.47691
-5.6348
-5.67279
-5.7161
-5.75515
-5.79476
-5.83936
-5.89022
-5.94738
-6.0104
-6.07855
-6.15083
-6.22602
-6.30266
-6.37914
-6.45358
-6.52394
-6.58794
-6.6431
-6.68677
-6.71614
-6.72829
-6.72026
-6.68911
-6.63199
-6.54619
-6.42921
-6.27892
-6.0937
-5.87248
-5.61506
-5.32143
-4.99201
-4.62779
-4.2303
-3.8016
-3.34419
-2.86099
-2.35526
-1.8305
-1.29044
-0.73891
-0.17982
0.382943
0.945562
1.50435
2.0558
2.59662
3.12375
3.6343
4.12568
4.59581
5.04298
5.46571
5.86288
6.23374
6.57791
6.89534
7.18626
7.45119
7.69086
7.90618
8.09825
8.26825
8.4175
8.54734
8.65917
8.75439
8.83439
8.90053
8.95414
8.99648
9.02876
9.0521
9.06756
9.07612
9.07868
9.07606
9.06902
9.05823
9.04429
9.02775
9.00909
8.98874
8.96707
8.94441
8.92103
8.89719
8.87308
8.84887
8.82472
8.80074
8.77704
8.75372
8.73086
8.70854
8.68681
8.66572
8.6453
8.62556
8.60651
8.58816
8.57049
8.55351
8.5372
8.52154
8.50651
8.49208
8.47823
8.46497
8.45226
8.44001
8.4282
8.41688
8.40599
8.3955
8.38541
8.3757
8.36634
8.35731
8.3486
8.34018
8.33203
8.32414
8.31648
8.30904
8.30181
8.29476
8.28788
8.28117
8.2746
8.26817
8.26186
8.25567
8.24957
8.24358
8.23766
8.23183
8.22606
8.22035
8.2147
8.20909
8.20352
8.19798
8.19247
8.18698
8.18151
8.17605
8.1706
8.16516
8.15973
8.1543
8.14888
8.14346
8.13806
8.13268
8.12731
8.12199
8.1167
8.11149
8.10636
8.10135
8.09649
8.09184
8.08746
8.08343
8.07986
8.07689
8.0747
8.07354
8.07373
8.07571
8.08008
8.08764
8.09954
8.11743
8.14351
8.18138
8.23418
8.30996
8.39227
-5.68109
-5.73158
-5.79214
-5.8455
-5.89503
-5.94713
-6.00434
-6.06723
-6.13577
-6.20956
-6.28789
-6.36978
-6.45399
-6.53898
-6.62295
-6.70379
-6.77911
-6.84625
-6.9023
-6.94415
-6.96858
-6.97228
-6.95201
-6.90463
-6.82724
-6.71723
-6.57241
-6.39116
-6.17247
-5.91577
-5.62108
-5.28898
-4.92064
-4.51776
-4.08255
-3.6177
-3.12628
-2.61168
-2.07758
-1.52782
-0.96636
-0.397221
0.175601
0.748187
1.31675
1.8777
2.42765
2.96345
3.4822
3.98147
4.45938
4.91422
5.34434
5.74859
6.12619
6.47675
6.80021
7.09681
7.36708
7.61174
7.83175
8.02821
8.20234
8.35545
8.48892
8.60415
8.70257
8.78558
8.85456
8.91084
8.95569
8.99033
9.01589
9.03345
9.04398
9.0484
9.04754
9.04215
9.03292
9.02045
9.00531
8.98797
8.96886
8.94837
8.92683
8.90451
8.88167
8.85851
8.8352
8.8119
8.78872
8.76578
8.74317
8.72099
8.69931
8.67819
8.65767
8.63779
8.61855
8.59999
8.58208
8.56484
8.54826
8.53232
8.51701
8.5023
8.48818
8.47462
8.46159
8.44907
8.43699
8.42546
8.41434
8.40365
8.39335
8.38344
8.3739
8.36469
8.3558
8.34722
8.33892
8.33088
8.32308
8.31552
8.30816
8.301
8.29402
8.28721
8.28056
8.27404
8.26766
8.2614
8.25525
8.24919
8.24323
8.23735
8.23154
8.2258
8.22011
8.21448
8.20889
8.20334
8.19781
8.19232
8.18684
8.18138
8.17593
8.17049
8.16506
8.15963
8.1542
8.14878
8.14337
8.13796
8.13257
8.12721
8.12187
8.11658
8.11134
8.10619
8.10115
8.09626
8.09157
8.08713
8.08302
8.07936
8.07626
8.07391
8.07252
8.07241
8.07398
8.07775
8.08446
8.09507
8.11092
8.13369
8.16575
8.20834
8.26366
8.31398
-5.79434
-5.8532
-5.92726
-5.99362
-6.05321
-6.11353
-6.1782
-6.24839
-6.32445
-6.40633
-6.4936
-6.58552
-6.68097
-6.77847
-6.87616
-6.9718
-7.06274
-7.14603
-7.2184
-7.27635
-7.31622
-7.33433
-7.32703
-7.29086
-7.22264
-7.11956
-6.97929
-6.80018
-6.58112
-6.32155
-6.02163
-5.68212
-5.30439
-4.89042
-4.44266
-3.96405
-3.4579
-2.92784
-2.37774
-1.81163
-1.23366
-0.64799
-0.0587683
0.529953
1.11426
1.69044
2.25498
2.80462
3.3364
3.84793
4.33727
4.8027
5.2426
5.65582
6.04159
6.39953
6.7296
7.03209
7.30755
7.55678
7.78078
7.98072
8.15788
8.31364
8.44942
8.56671
8.66695
8.7516
8.82207
8.87972
8.92585
8.96169
8.98839
9.00704
9.01861
9.02405
9.02417
9.01973
9.01143
8.99988
8.98562
8.96915
8.9509
8.93124
8.91051
8.88899
8.86692
8.84451
8.82193
8.79933
8.77682
8.75454
8.73257
8.71099
8.6899
8.66934
8.64935
8.62998
8.61124
8.59314
8.57568
8.55886
8.54268
8.52711
8.51216
8.49779
8.48398
8.47071
8.45796
8.44571
8.43392
8.4226
8.4117
8.40121
8.39111
8.38138
8.37199
8.36294
8.35419
8.34574
8.33756
8.32963
8.32194
8.31447
8.3072
8.30012
8.29322
8.28648
8.27989
8.27343
8.26711
8.26089
8.25478
8.24877
8.24285
8.237
8.23122
8.22551
8.21985
8.21424
8.20867
8.20314
8.19763
8.19215
8.18669
8.18124
8.1758
8.17037
8.16494
8.15951
8.15409
8.14867
8.14326
8.13785
8.13245
8.12707
8.12172
8.11641
8.11116
8.10598
8.1009
8.09596
8.09121
8.08669
8.08248
8.07868
8.07541
8.07283
8.07115
8.07064
8.07166
8.07467
8.08028
8.08929
8.1027
8.12166
8.14745
8.17985
8.21769
8.24486
-5.96923
-6.03431
-6.11918
-6.19698
-6.26626
-6.33516
-6.40822
-6.48721
-6.57291
-6.66558
-6.7651
-6.87089
-6.98192
-7.09671
-7.21324
-7.32902
-7.4411
-7.54606
-7.64014
-7.71929
-7.7793
-7.81592
-7.82501
-7.80266
-7.74533
-7.64992
-7.51396
-7.33574
-7.11415
-6.84875
-6.53992
-6.18871
-5.79683
-5.36661
-4.90085
-4.40283
-3.8762
-3.32485
-2.75293
-2.1647
-1.5645
-0.956686
-0.345552
0.264701
0.870028
1.46658
2.05073
2.61911
3.16865
3.69693
4.20196
4.68191
5.13518
5.56059
5.95739
6.32518
6.66396
6.97406
7.25608
7.5109
7.73959
7.94343
8.12378
8.28213
8.42
8.53895
8.64052
8.72623
8.79757
8.85594
8.90269
8.93908
8.96629
8.98542
8.99748
9.00339
9.00401
9.00009
8.99231
8.9813
8.96761
8.95172
8.93406
8.91501
8.89488
8.87398
8.85253
8.83074
8.80877
8.78678
8.76488
8.74318
8.72178
8.70078
8.68023
8.6602
8.64074
8.62186
8.6036
8.58596
8.56895
8.55256
8.53678
8.5216
8.50701
8.49299
8.47951
8.46656
8.4541
8.44213
8.43061
8.41953
8.40886
8.39859
8.38869
8.37915
8.36994
8.36105
8.35245
8.34414
8.33609
8.32828
8.3207
8.31333
8.30616
8.29917
8.29235
8.28569
8.27916
8.27277
8.2665
8.26034
8.25428
8.24832
8.24243
8.23662
8.23088
8.2252
8.21957
8.21398
8.20844
8.20292
8.19744
8.19197
8.18652
8.18109
8.17566
8.17023
8.16481
8.15939
8.15397
8.14855
8.14313
8.13772
8.13232
8.12693
8.12156
8.11623
8.11094
8.10572
8.1006
8.0956
8.09076
8.08614
8.08181
8.07784
8.07436
8.0715
8.06945
8.06845
8.06879
8.07089
8.07521
8.08237
8.09307
8.10794
8.12742
8.1503
8.17365
8.18351
-6.19716
-6.26671
-6.35987
-6.44725
-6.52557
-6.60341
-6.68611
-6.77602
-6.87434
-6.98166
-7.09808
-7.22314
-7.35582
-7.49449
-7.63691
-7.78017
-7.9208
-8.05475
-8.17758
-8.28446
-8.37045
-8.43057
-8.46001
-8.45432
-8.4095
-8.32219
-8.18976
-8.01055
-7.78352
-7.50854
-7.18634
-6.81843
-6.40697
-5.95478
-5.46515
-4.94179
-4.38875
-3.81027
-3.21081
-2.59489
-1.96705
-1.33183
-0.693687
-0.0569628
0.574176
1.19577
1.80407
2.39559
2.96722
3.51641
4.04116
4.53949
5.00978
5.4508
5.86177
6.24229
6.59237
6.91236
7.20292
7.465
7.69977
7.9086
8.09298
8.2545
8.39483
8.51564
8.61857
8.70527
8.77729
8.83613
8.88319
8.91981
8.94719
8.96646
8.97867
8.98476
8.98557
8.98188
8.97439
8.96369
8.95036
8.93486
8.91763
8.89904
8.8794
8.85901
8.83809
8.81683
8.79542
8.77398
8.75263
8.73149
8.71064
8.69018
8.67017
8.65067
8.63172
8.61335
8.59557
8.5784
8.56184
8.54589
8.53053
8.51575
8.50154
8.48788
8.47475
8.46212
8.44998
8.4383
8.42706
8.41624
8.40581
8.39577
8.38609
8.37674
8.36772
8.359
8.35057
8.34241
8.3345
8.32682
8.31936
8.3121
8.30503
8.29814
8.29141
8.28482
8.27837
8.27205
8.26584
8.25974
8.25374
8.24782
8.24198
8.23621
8.23051
8.22486
8.21926
8.2137
8.20818
8.20269
8.19723
8.19178
8.18634
8.18092
8.1755
8.17009
8.16467
8.15926
8.15384
8.14842
8.143
8.13758
8.13216
8.12676
8.12137
8.11601
8.11069
8.10543
8.10024
8.09517
8.09024
8.0855
8.08101
8.07685
8.07312
8.06993
8.06745
8.06587
8.06546
8.06651
8.06941
8.07456
8.08238
8.0931
8.10651
8.12077
8.13217
8.12887
-6.46632
-6.53887
-6.63822
-6.73372
-6.821
-6.90894
-7.00358
-7.1078
-7.22318
-7.35059
-7.49028
-7.64182
-7.8041
-7.97519
-8.15239
-8.33222
-8.51042
-8.6821
-8.84184
-8.98384
-9.10218
-9.19095
-9.24456
-9.25789
-9.2265
-9.14668
-9.01579
-8.83234
-8.59556
-8.30584
-7.96447
-7.57356
-7.13597
-6.65514
-6.13499
-5.57977
-4.99401
-4.38238
-3.74963
-3.10055
-2.43991
-1.77241
-1.10264
-0.435035
0.226131
0.8768
1.51313
2.13155
2.72889
3.30256
3.85046
4.37051
4.86101
5.32069
5.74872
6.14468
6.50857
6.84076
7.14196
7.41317
7.65565
7.87087
8.06044
8.2261
8.36963
8.49284
8.59753
8.68544
8.75827
8.8176
8.86494
8.90168
8.92909
8.94837
8.96056
8.96665
8.96751
8.96391
8.95655
8.94605
8.93297
8.91777
8.90089
8.88269
8.86348
8.84355
8.82311
8.80237
8.78149
8.76059
8.73979
8.7192
8.69891
8.67899
8.65953
8.64057
8.62215
8.60429
8.58703
8.57035
8.55426
8.53877
8.52385
8.50949
8.49569
8.48241
8.46965
8.45737
8.44555
8.43419
8.42324
8.41269
8.40253
8.39273
8.38328
8.37415
8.36533
8.3568
8.34854
8.34053
8.33277
8.32523
8.3179
8.31077
8.30381
8.29702
8.29038
8.28388
8.27752
8.27127
8.26513
8.25909
8.25314
8.24728
8.24149
8.23577
8.2301
8.22449
8.21892
8.2134
8.2079
8.20244
8.19699
8.19157
8.18615
8.18074
8.17533
8.16993
8.16452
8.15911
8.15369
8.14827
8.14285
8.13742
8.13199
8.12657
8.12116
8.11577
8.11041
8.10509
8.09985
8.09469
8.08965
8.08477
8.08011
8.07573
8.07171
8.06815
8.06519
8.06299
8.06173
8.06166
8.06302
8.06607
8.07097
8.07761
8.08533
8.09197
8.09354
8.08017
-6.76272
-6.83722
-6.94135
-7.0444
-7.14149
-7.24182
-7.35196
-7.47525
-7.61359
-7.76806
-7.93898
-8.12584
-8.32723
-8.54076
-8.76308
-8.9898
-9.21567
-9.43463
-9.64003
-9.82485
-9.98193
-10.1043
-10.1853
-10.2193
-10.2011
-10.1269
-9.99405
-9.80153
-9.54908
-9.23787
-8.86996
-8.44837
-7.97684
-7.45968
-6.90156
-6.30742
-5.68232
-5.03137
-4.35966
-3.67223
-2.97401
-2.26984
-1.56438
-0.862141
-0.167453
0.515573
1.183
1.83118
2.457
3.05793
3.63162
4.17593
4.68908
5.16976
5.6171
6.03065
6.41041
6.75674
7.07039
7.3524
7.60412
7.8271
8.02307
8.1939
8.3415
8.46783
8.57484
8.66441
8.73835
8.79839
8.84613
8.88305
8.91052
8.92977
8.94191
8.94796
8.94879
8.94522
8.93795
8.9276
8.91473
8.8998
8.88324
8.86542
8.84664
8.82716
8.80722
8.787
8.76666
8.74632
8.72609
8.70608
8.68636
8.66703
8.64814
8.62975
8.61189
8.59459
8.57786
8.5617
8.54613
8.53112
8.51667
8.50277
8.4894
8.47653
8.46416
8.45225
8.44079
8.42975
8.41912
8.40888
8.39899
8.38945
8.38024
8.37134
8.36274
8.35441
8.34633
8.3385
8.3309
8.32351
8.31632
8.30932
8.30248
8.2958
8.28926
8.28286
8.27658
8.27041
8.26435
8.25838
8.2525
8.24669
8.24095
8.23528
8.22966
8.22409
8.21856
8.21306
8.2076
8.20216
8.19674
8.19133
8.18593
8.18054
8.17515
8.16975
8.16435
8.15895
8.15354
8.14811
8.14268
8.13725
8.13181
8.12636
8.12093
8.1155
8.1101
8.10473
8.09941
8.09415
8.089
8.08398
8.07912
8.0745
8.07017
8.06621
8.06273
8.05984
8.0577
8.05644
8.05622
8.05713
8.05914
8.06188
8.06438
8.06433
8.05784
8.0367
-7.07002
-7.14569
-7.2538
-7.36462
-7.47335
-7.5894
-7.71969
-7.86791
-8.03621
-8.2258
-8.43697
-8.66898
-8.91997
-9.18689
-9.46543
-9.75011
-10.0344
-10.3107
-10.571
-10.8066
-11.009
-11.1698
-11.2812
-11.3367
-11.3306
-11.2589
-11.1194
-10.9114
-10.6358
-10.2947
-9.89132
-9.42995
-8.9155
-8.35339
-7.74924
-7.10875
-6.43758
-5.74129
-5.02526
-4.29473
-3.55474
-2.81016
-2.06569
-1.32582
-0.594938
0.122803
0.823386
1.50335
2.15967
2.7897
3.3909
3.96106
4.49839
5.00154
5.46961
5.90214
6.2991
6.66087
6.98822
7.28225
7.54436
7.77618
7.97955
8.15644
8.30892
8.43907
8.54898
8.64068
8.71613
8.77717
8.82554
8.86281
8.89043
8.90972
8.92185
8.92787
8.9287
8.92516
8.91798
8.90779
8.89513
8.88049
8.86427
8.84685
8.82852
8.80954
8.79012
8.77046
8.7507
8.73095
8.71134
8.69194
8.67286
8.65415
8.63588
8.6181
8.60085
8.58414
8.56799
8.5524
8.53737
8.52289
8.50895
8.49553
8.48262
8.4702
8.45825
8.44674
8.43566
8.42498
8.41469
8.40476
8.39517
8.38592
8.37697
8.36832
8.35994
8.35182
8.34395
8.33631
8.32888
8.32166
8.31461
8.30775
8.30104
8.29448
8.28805
8.28175
8.27557
8.26949
8.26351
8.25761
8.2518
8.24605
8.24037
8.23475
8.22917
8.22365
8.21816
8.2127
8.20727
8.20186
8.19646
8.19108
8.1857
8.18032
8.17495
8.16956
8.16417
8.15877
8.15336
8.14794
8.14251
8.13706
8.1316
8.12614
8.12068
8.11522
8.10976
8.10433
8.09893
8.09358
8.0883
8.08312
8.07806
8.07318
8.06851
8.06413
8.0601
8.0565
8.05343
8.05096
8.04914
8.04794
8.04715
8.04621
8.04398
8.03813
8.025
7.99781
-7.36839
-7.44447
-7.55598
-7.67533
-7.79819
-7.93392
-8.08958
-8.26908
-8.47476
-8.70789
-8.96866
-9.25596
-9.56734
-9.89888
-10.2452
-10.5994
-10.9534
-11.298
-11.6232
-11.9186
-12.1736
-12.3784
-12.5236
-12.6015
-12.6059
-12.5326
-12.3803
-12.1491
-11.8412
-11.4601
-11.0107
-10.4991
-9.93172
-9.31535
-8.65675
-7.96248
-7.23878
-6.49159
-5.72654
-4.94892
-4.16375
-3.37589
-2.58999
-1.81051
-1.04189
-0.288185
0.446825
1.15981
1.84776
2.50774
3.13718
3.73385
4.29595
4.82213
5.31146
5.76349
6.17819
6.55596
6.8976
7.20423
7.47733
7.71861
7.92999
8.11355
8.27147
8.40596
8.51926
8.61352
8.69084
8.75319
8.80243
8.84024
8.86817
8.88762
8.89983
8.90589
8.90676
8.90331
8.89626
8.88626
8.87386
8.85955
8.84372
8.82674
8.80891
8.79047
8.77164
8.75259
8.73346
8.71437
8.69542
8.6767
8.65829
8.64026
8.62267
8.60556
8.58896
8.57289
8.55737
8.54239
8.52795
8.51404
8.50064
8.48775
8.47535
8.4634
8.4519
8.44083
8.43015
8.41986
8.40992
8.40033
8.39107
8.38212
8.37345
8.36506
8.35693
8.34904
8.34139
8.33395
8.32671
8.31965
8.31277
8.30606
8.29949
8.29306
8.28675
8.28056
8.27448
8.26849
8.2626
8.25678
8.25104
8.24536
8.23974
8.23418
8.22865
8.22317
8.21773
8.21231
8.20691
8.20153
8.19616
8.19081
8.18545
8.18009
8.17473
8.16936
8.16398
8.15858
8.15318
8.14775
8.14231
8.13686
8.13139
8.12591
8.12041
8.11491
8.10941
8.10391
8.09843
8.09297
8.08756
8.08221
8.07694
8.07178
8.06677
8.06195
8.05735
8.05303
8.04902
8.04532
8.04192
8.03865
8.0352
8.03085
8.02437
8.0135
7.99489
7.96294
-7.63297
-7.70847
-7.82265
-7.95135
-8.09094
-8.25031
-8.4364
-8.65327
-8.9034
-9.18809
-9.50735
-9.85968
-10.242
-10.6493
-11.0751
-11.511
-11.9471
-12.3721
-12.7739
-13.1397
-13.4565
-13.7122
-13.8956
-13.9974
-14.0106
-13.9312
-13.7589
-13.4951
-13.1439
-12.711
-12.2037
-11.6303
-10.9992
-10.319
-9.59767
-8.84262
-8.06062
-7.25784
-6.44002
-5.61241
-4.77987
-3.94713
-3.11881
-2.29919
-1.49241
-0.702322
0.0676036
0.813922
1.53343
2.22319
2.88063
3.50353
4.09009
4.63895
5.14921
5.62042
6.05259
6.44615
6.80192
7.1211
7.40521
7.65603
7.87556
8.066
8.2296
8.36871
8.48566
8.58276
8.66221
8.72612
8.77644
8.81499
8.84339
8.86314
8.87553
8.88172
8.88273
8.87942
8.87257
8.86283
8.85075
8.83682
8.82144
8.80497
8.7877
8.76987
8.75169
8.73331
8.71488
8.69651
8.67829
8.6603
8.64263
8.62534
8.60848
8.59209
8.57621
8.56084
8.54599
8.53167
8.51786
8.50457
8.49176
8.47943
8.46756
8.45613
8.44512
8.4345
8.42426
8.41438
8.40483
8.39561
8.38668
8.37805
8.36969
8.36158
8.35371
8.34607
8.33865
8.33142
8.32438
8.31751
8.3108
8.30425
8.29783
8.29153
8.28536
8.27929
8.27331
8.26743
8.26162
8.25589
8.25023
8.24462
8.23907
8.23356
8.2281
8.22266
8.21726
8.21189
8.20653
8.20118
8.19584
8.19051
8.18518
8.17984
8.1745
8.16914
8.16377
8.15838
8.15298
8.14756
8.14211
8.13665
8.13116
8.12566
8.12013
8.11459
8.10904
8.10347
8.09791
8.09234
8.08679
8.08126
8.07578
8.07034
8.06498
8.0597
8.05453
8.04948
8.04452
8.03962
8.03467
8.02942
8.02345
8.01598
8.00571
7.9905
7.96736
7.93161
-7.83235
-7.90597
-8.02168
-8.16017
-8.31862
-8.50497
-8.72575
-8.98507
-9.28556
-9.62859
-10.014
-10.44
-10.9029
-11.3967
-11.9137
-12.4438
-12.9753
-13.4945
-13.9864
-14.4353
-14.8251
-15.1406
-15.368
-15.496
-15.5165
-15.4262
-15.2261
-14.9193
-14.5127
-14.0151
-13.4372
-12.79
-12.0846
-11.3313
-10.5397
-9.71804
-8.87333
-8.01178
-7.13917
-6.26054
-5.38045
-4.50324
-3.63305
-2.77386
-1.92937
-1.10331
-0.299293
0.479275
1.2292
1.94757
2.6318
3.2797
3.88948
4.45983
4.98985
5.47914
5.92775
6.33614
6.70522
7.03623
7.33076
7.59067
7.81803
8.01511
8.18428
8.32797
8.44862
8.54864
8.63034
8.69594
8.7475
8.78692
8.81594
8.8361
8.8488
8.85523
8.85646
8.85339
8.84682
8.83741
8.82572
8.81225
8.7974
8.78151
8.76487
8.74771
8.73024
8.71261
8.69495
8.67736
8.65993
8.64275
8.62588
8.60939
8.59333
8.57772
8.5626
8.54798
8.53387
8.52025
8.50713
8.49449
8.48231
8.47059
8.45929
8.4484
8.43791
8.42778
8.418
8.40855
8.39942
8.39058
8.38202
8.37373
8.36568
8.35788
8.35029
8.34291
8.33573
8.32873
8.3219
8.31523
8.30871
8.30232
8.29606
8.28991
8.28387
8.27793
8.27207
8.26629
8.26059
8.25495
8.24936
8.24383
8.23835
8.23291
8.2275
8.22212
8.21677
8.21144
8.20612
8.20081
8.1955
8.1902
8.18489
8.17958
8.17425
8.16891
8.16355
8.15817
8.15277
8.14735
8.1419
8.13643
8.13093
8.1254
8.11984
8.11426
8.10865
8.10302
8.09737
8.09169
8.086
8.0803
8.07459
8.06887
8.06315
8.05742
8.05168
8.04589
8.04001
8.03393
8.02749
8.02037
8.01206
8.00174
7.9881
7.96915
7.94223
7.90343
-7.92786
-7.99885
-8.11489
-8.26312
-8.44179
-8.65736
-8.91566
-9.22081
-9.57565
-9.98169
-10.4388
-10.9451
-11.4961
-12.0855
-12.7041
-13.3404
-13.9805
-14.6079
-15.2043
-15.7502
-16.2254
-16.6107
-16.889
-17.0463
-17.0735
-16.9685
-16.7331
-16.3731
-15.8992
-15.3247
-14.6643
-13.9329
-13.1443
-12.3111
-11.4445
-10.5531
-9.64439
-8.72433
-7.79805
-6.86989
-5.94392
-5.02392
-4.11348
-3.21628
-2.33597
-1.4761
-0.640191
0.168413
0.946552
1.69134
2.40022
3.07101
3.70197
4.29179
4.83965
5.34519
5.80853
6.2302
6.61116
6.95274
7.25659
7.52466
7.75909
7.96223
8.13651
8.28447
8.40862
8.51145
8.59538
8.6627
8.71556
8.75596
8.78571
8.80642
8.81953
8.82632
8.82789
8.82516
8.81896
8.80997
8.79877
8.78584
8.77159
8.75636
8.74043
8.72403
8.70734
8.69053
8.6737
8.65696
8.64039
8.62408
8.60808
8.59245
8.57724
8.56248
8.54818
8.53437
8.52103
8.50817
8.49578
8.48383
8.47233
8.46124
8.45055
8.44024
8.43029
8.42068
8.41139
8.4024
8.3937
8.38527
8.3771
8.36916
8.36146
8.35396
8.34667
8.33957
8.33265
8.32589
8.31929
8.31283
8.3065
8.30029
8.2942
8.2882
8.28231
8.27649
8.27076
8.26509
8.25949
8.25394
8.24845
8.243
8.23759
8.23222
8.22687
8.22155
8.21625
8.21096
8.20569
8.20042
8.19514
8.18987
8.18459
8.1793
8.17399
8.16866
8.16332
8.15795
8.15256
8.14713
8.14168
8.1362
8.13068
8.12513
8.11955
8.11393
8.10826
8.10256
8.09682
8.09104
8.08521
8.07933
8.07339
8.06739
8.06132
8.05514
8.04883
8.04233
8.03555
8.02834
8.02047
8.01159
8.00112
7.98822
7.9716
7.94944
7.91935
7.87808
-7.86982
-7.94621
-8.06116
-8.21802
-8.41699
-8.6624
-8.95903
-9.31095
-9.72129
-10.1919
-10.7228
-11.3121
-11.9555
-12.6457
-13.3729
-14.1239
-14.8825
-15.6294
-16.3422
-16.9967
-17.5681
-18.0321
-18.3675
-18.5569
-18.5898
-18.4678
-18.1909
-17.7699
-17.2207
-16.562
-15.8136
-14.9944
-14.1215
-13.2095
-12.2699
-11.3118
-10.3423
-9.36715
-8.39057
-7.41635
-6.44789
-5.48848
-4.54136
-3.60984
-2.69729
-1.80714
-0.942764
-0.107468
0.695631
1.46367
2.19411
2.8848
3.53404
4.14057
4.70363
5.22294
5.69869
6.1315
6.52241
6.87284
7.18451
7.45943
7.69984
7.90814
8.08684
8.23852
8.36578
8.47118
8.5572
8.62619
8.68039
8.72185
8.75243
8.77381
8.7875
8.79479
8.79683
8.79459
8.78889
8.78045
8.76984
8.75756
8.74402
8.72954
8.71441
8.69885
8.68303
8.66711
8.65119
8.63537
8.61973
8.60435
8.58929
8.57459
8.56029
8.54642
8.533
8.52004
8.50753
8.49547
8.48385
8.47265
8.46185
8.45143
8.44138
8.43168
8.4223
8.41324
8.40446
8.39596
8.38771
8.37971
8.37193
8.36438
8.35702
8.34986
8.34288
8.33607
8.32942
8.32291
8.31654
8.3103
8.30418
8.29816
8.29224
8.28641
8.28066
8.27499
8.26938
8.26383
8.25834
8.25289
8.24749
8.24213
8.2368
8.23149
8.22621
8.22095
8.2157
8.21047
8.20523
8.2
8.19477
8.18953
8.18427
8.179
8.17372
8.16841
8.16308
8.15772
8.15233
8.14691
8.14146
8.13597
8.13044
8.12487
8.11925
8.11359
8.10787
8.1021
8.09628
8.09038
8.08441
8.07836
8.0722
8.06593
8.0595
8.05289
8.04603
8.03884
8.03119
8.0229
8.01369
8.00317
7.99073
7.9755
7.95626
7.93132
7.89858
7.85528
-7.61577
-7.69717
-7.81489
-7.98257
-8.20296
-8.47885
-8.81399
-9.21244
-9.67772
-10.2122
-10.8163
-11.4885
-12.2244
-13.0165
-13.8541
-14.7225
-15.6032
-16.4733
-17.3064
-18.0732
-18.7434
-19.2878
-19.6805
-19.9017
-19.9418
-19.7994
-19.4816
-19.0043
-18.3859
-17.65
-16.821
-15.9216
-14.9718
-13.9877
-12.982
-11.9639
-10.9405
-9.91661
-8.89603
-7.88178
-6.87659
-5.88319
-4.90441
-3.94326
-3.00291
-2.08667
-1.19786
-0.339766
0.484511
1.27211
2.0205
2.72757
3.39166
4.0116
4.58669
5.11677
5.60211
6.04345
6.44192
6.79903
7.1166
7.39671
7.64165
7.85389
8.036
8.19061
8.32036
8.42786
8.51564
8.58612
8.64155
8.68403
8.71549
8.73763
8.752
8.75993
8.76258
8.76096
8.75591
8.74815
8.73828
8.72678
8.71407
8.70048
8.68627
8.67166
8.65681
8.64188
8.62697
8.61217
8.59756
8.58321
8.56916
8.55547
8.54216
8.52927
8.5168
8.50476
8.49315
8.48195
8.47115
8.46074
8.4507
8.44101
8.43164
8.42259
8.41382
8.40534
8.3971
8.38911
8.38135
8.3738
8.36646
8.3593
8.35232
8.34551
8.33886
8.33236
8.32599
8.31976
8.31364
8.30763
8.30172
8.2959
8.29017
8.28451
8.27892
8.27339
8.26792
8.2625
8.25712
8.25178
8.24648
8.2412
8.23595
8.23073
8.22552
8.22032
8.21513
8.20994
8.20476
8.19957
8.19437
8.18916
8.18394
8.1787
8.17343
8.16815
8.16283
8.15748
8.1521
8.14668
8.14123
8.13573
8.13019
8.12459
8.11895
8.11325
8.10748
8.10165
8.09573
8.08973
8.08362
8.0774
8.07103
8.06448
8.05772
8.05068
8.04329
8.03543
8.02696
8.01765
8.0072
7.99516
7.98093
7.96362
7.94209
7.91476
7.87977
7.83481
-7.13122
-7.21872
-7.34455
-7.52569
-7.76722
-8.071
-8.44018
-8.87898
-9.39135
-9.98016
-10.6465
-11.389
-12.2036
-13.0827
-14.0146
-14.9834
-15.9683
-16.9435
-17.8789
-18.741
-19.4951
-20.108
-20.5511
-20.8027
-20.8537
-20.705
-20.3647
-19.851
-19.1867
-18.3989
-17.5153
-16.5615
-15.5597
-14.5274
-13.4777
-12.4201
-11.3611
-10.3049
-9.25492
-8.21347
-7.18291
-6.16565
-5.1643
-4.18179
-3.22124
-2.28598
-1.37938
-0.504772
0.334676
1.13607
1.8969
2.61505
3.28893
3.91745
4.50002
5.03659
5.52755
5.97377
6.37648
6.7373
7.05811
7.34107
7.58853
7.80299
7.98706
8.14341
8.2747
8.38357
8.47257
8.54412
8.60053
8.64391
8.6762
8.69912
8.71424
8.72292
8.72632
8.72546
8.72121
8.71428
8.70528
8.69469
8.68293
8.67032
8.65712
8.64354
8.62975
8.61589
8.60205
8.58832
8.57479
8.5615
8.54852
8.53587
8.5236
8.51171
8.50023