/*--------------------------------*- C++ -*----------------------------------*\
| =========                 |                                                 |
| \\      /  F ield         | OpenFOAM: The Open Source CFD Toolbox           |
|  \\    /   O peration     | Version:  2412                                  |
|   \\  /    A nd           | Website:  www.openfoam.com                      |
|    \\/     M anipulation  |                                                 |
\*---------------------------------------------------------------------------*/
FoamFile
{
    version     2.0;
    format      ascii;
    arch        "LSB;label=32;scalar=64";
    class       surfaceScalarField;
    location    "0.01";
    object      phi;
}
// * * * * * * * * * * * * * * * * * * * * * * * * * * * * * * * * * * * * * //

dimensions      [0 3 -1 0 0 0 0];

oriented        oriented;

internalField   nonuniform List<scalar> 
24170
(
1.36663e-07
-5.71189e-08
1.95768e-07
-5.91047e-08
2.58622e-07
-6.28538e-08
3.13344e-07
-5.47222e-08
3.64911e-07
-5.15666e-08
4.12917e-07
-4.80063e-08
4.56906e-07
-4.39892e-08
4.97175e-07
-4.02686e-08
5.34044e-07
-3.68693e-08
5.67768e-07
-3.37245e-08
5.9857e-07
-3.08021e-08
6.26616e-07
-2.80457e-08
6.51993e-07
-2.53766e-08
6.74691e-07
-2.26978e-08
6.94646e-07
-1.9955e-08
7.11694e-07
-1.70487e-08
7.27283e-07
-1.55884e-08
-1.84843e-08
7.45767e-07
3.26109e-07
-1.24775e-07
3.94521e-07
-1.27517e-07
4.57111e-07
-1.25444e-07
5.1673e-07
-1.14341e-07
5.72044e-07
-1.06881e-07
6.23319e-07
-9.92816e-08
6.70754e-07
-9.14233e-08
7.14525e-07
-8.404e-08
7.54866e-07
-7.72108e-08
7.92015e-07
-7.08729e-08
8.26171e-07
-6.49586e-08
8.5748e-07
-5.93542e-08
8.8601e-07
-5.39069e-08
9.11743e-07
-4.8431e-08
9.34553e-07
-4.27648e-08
9.54199e-07
-3.66943e-08
9.69868e-07
-3.12576e-08
-2.44954e-08
9.75879e-07
5.17364e-07
-1.71684e-07
5.79858e-07
-1.90011e-07
6.40024e-07
-1.8561e-07
6.98811e-07
-1.73128e-07
7.53775e-07
-1.61845e-07
8.05041e-07
-1.50547e-07
8.52827e-07
-1.39209e-07
8.97222e-07
-1.28435e-07
9.3838e-07
-1.18369e-07
9.76483e-07
-1.08975e-07
1.01169e-06
-1.00162e-07
1.0441e-06
-9.17686e-08
1.07377e-06
-8.35767e-08
1.10065e-06
-7.5313e-08
1.12456e-06
-6.6671e-08
1.14507e-06
-5.72057e-08
1.16058e-06
-4.67655e-08
-3.14316e-08
1.16751e-06
7.43731e-07
-1.95745e-07
7.92992e-07
-2.39271e-07
8.46303e-07
-2.38921e-07
9.00796e-07
-2.27621e-07
9.52957e-07
-2.14007e-07
1.00225e-06
-1.99841e-07
1.04866e-06
-1.8562e-07
1.09215e-06
-1.71918e-07
1.13275e-06
-1.58971e-07
1.17057e-06
-1.46794e-07
1.2057e-06
-1.35292e-07
1.2382e-06
-1.24274e-07
1.26809e-06
-1.13468e-07
1.2953e-06
-1.0252e-07
1.31961e-06
-9.09797e-08
1.34055e-06
-7.81523e-08
1.35686e-06
-6.3074e-08
-4.16723e-08
1.3671e-06
1.0153e-06
-2.0058e-07
1.04876e-06
-2.72727e-07
1.09171e-06
-2.81872e-07
1.1389e-06
-2.74806e-07
1.18591e-06
-2.61016e-07
1.23131e-06
-2.45245e-07
1.2747e-06
-2.29006e-07
1.31582e-06
-2.13044e-07
1.35459e-06
-1.9774e-07
1.39099e-06
-1.83196e-07
1.42504e-06
-1.69341e-07
1.45674e-06
-1.55975e-07
1.48607e-06
-1.42793e-07
1.51293e-06
-1.29381e-07
1.53713e-06
-1.15178e-07
1.5583e-06
-9.93297e-08
1.57575e-06
-8.05202e-08
-5.52411e-08
1.58932e-06
1.33858e-06
-1.91716e-07
1.35608e-06
-2.90237e-07
1.38633e-06
-3.1212e-07
1.42356e-06
-3.12033e-07
1.46307e-06
-3.00528e-07
1.50259e-06
-2.84764e-07
1.54122e-06
-2.67635e-07
1.57847e-06
-2.50289e-07
1.61405e-06
-2.33327e-07
1.64784e-06
-2.16984e-07
1.67975e-06
-2.01246e-07
1.70971e-06
-1.85934e-07
1.73765e-06
-1.70738e-07
1.76348e-06
-1.55213e-07
1.78705e-06
-1.38748e-07
1.80817e-06
-1.20448e-07
1.82663e-06
-9.89819e-08
-7.16614e-08
1.84305e-06
1.71826e-06
-1.74691e-07
1.72144e-06
-2.93422e-07
1.73808e-06
-3.28757e-07
1.7634e-06
-3.37356e-07
1.79329e-06
-3.30415e-07
1.82496e-06
-3.16439e-07
1.85707e-06
-2.99744e-07
1.88885e-06
-2.82073e-07
1.91984e-06
-2.64314e-07
1.94974e-06
-2.46885e-07
1.97837e-06
-2.29872e-07
2.00558e-06
-2.13147e-07
2.03127e-06
-1.96426e-07
2.05533e-06
-1.79277e-07
2.07769e-06
-1.61103e-07
2.09831e-06
-1.41076e-07
2.11739e-06
-1.18056e-07
-9.01959e-08
2.13592e-06
2.15798e-06
-1.5398e-07
2.14956e-06
-2.85005e-07
2.15316e-06
-3.32356e-07
2.16572e-06
-3.49911e-07
2.18441e-06
-3.49111e-07
2.20655e-06
-3.38578e-07
2.2305e-06
-3.23695e-07
2.25529e-06
-3.06857e-07
2.28026e-06
-2.89285e-07
2.30498e-06
-2.71608e-07
2.32916e-06
-2.54049e-07
2.35258e-06
-2.36566e-07
2.37509e-06
-2.18935e-07
2.39659e-06
-2.00781e-07
2.41707e-06
-1.81578e-07
2.43664e-06
-1.60647e-07
2.45572e-06
-1.37137e-07
-1.09933e-07
2.47545e-06
2.66079e-06
-1.32582e-07
2.64383e-06
-2.6805e-07
2.63613e-06
-3.24651e-07
2.63631e-06
-3.50089e-07
2.64316e-06
-3.55958e-07
2.65464e-06
-3.5006e-07
2.66914e-06
-3.38202e-07
2.68561e-06
-3.23326e-07
2.70329e-06
-3.06961e-07
2.72163e-06
-2.89945e-07
2.74023e-06
-2.72657e-07
2.75884e-06
-2.55169e-07
2.77725e-06
-2.37348e-07
2.79538e-06
-2.18911e-07
2.81326e-06
-1.99455e-07
2.8311e-06
-1.78487e-07
2.84943e-06
-1.55474e-07
-1.29867e-07
2.86937e-06
3.22944e-06
-1.12159e-07
3.20669e-06
-2.45304e-07
3.18997e-06
-3.07928e-07
3.17922e-06
-3.39346e-07
3.17463e-06
-3.51368e-07
3.17517e-06
-3.50601e-07
3.17958e-06
-3.42604e-07
3.18686e-06
-3.30615e-07
3.19629e-06
-3.16385e-07
3.20727e-06
-3.00921e-07
3.21935e-06
-2.84745e-07
3.23224e-06
-2.68054e-07
3.24571e-06
-2.50826e-07
3.2597e-06
-2.32897e-07
3.27426e-06
-2.1401e-07
3.28964e-06
-1.93873e-07
3.30641e-06
-1.72243e-07
-1.48964e-07
3.32551e-06
3.86643e-06
-9.35591e-08
3.83997e-06
-2.18843e-07
3.8164e-06
-2.84361e-07
3.79677e-06
-3.19713e-07
3.7821e-06
-3.36697e-07
3.77235e-06
-3.40854e-07
3.76679e-06
-3.37042e-07
3.76469e-06
-3.28513e-07
3.76543e-06
-3.17124e-07
3.76848e-06
-3.0397e-07
3.77341e-06
-2.89681e-07
3.77992e-06
-2.74565e-07
3.78781e-06
-2.58715e-07
3.79701e-06
-2.42094e-07
3.8076e-06
-2.24595e-07
3.81983e-06
-2.06109e-07
3.83422e-06
-1.8663e-07
-1.6624e-07
3.8515e-06
3.81187e-06
-7.85274e-08
3.78796e-06
-1.9493e-07
3.76421e-06
-2.6061e-07
3.74238e-06
-2.97882e-07
3.72368e-06
-3.17996e-07
3.70858e-06
-3.2576e-07
3.69689e-06
-3.25354e-07
3.68826e-06
-3.19879e-07
3.68233e-06
-3.11191e-07
3.67876e-06
-3.00402e-07
3.67726e-06
-2.88187e-07
3.67762e-06
-2.74923e-07
3.67969e-06
-2.60789e-07
3.68345e-06
-2.45847e-07
3.68895e-06
-2.30101e-07
3.69642e-06
-2.1358e-07
3.70616e-06
-1.96365e-07
-1.78883e-07
3.7188e-06
5.03791e-06
-6.36754e-08
5.00998e-06
-1.67005e-07
4.97996e-06
-2.30591e-07
4.95058e-06
-2.68498e-07
4.92347e-06
-2.90881e-07
4.89966e-06
-3.01953e-07
4.87936e-06
-3.05056e-07
4.86245e-06
-3.0297e-07
4.84874e-06
-2.97483e-07
4.83802e-06
-2.89674e-07
4.83005e-06
-2.80222e-07
4.82468e-06
-2.6955e-07
4.8218e-06
-2.57909e-07
4.8214e-06
-2.45451e-07
4.82359e-06
-2.32286e-07
4.82856e-06
-2.18551e-07
4.83662e-06
-2.04426e-07
-1.90477e-07
4.84821e-06
6.66338e-06
-4.95816e-08
6.63257e-06
-1.36201e-07
6.59661e-06
-1.94631e-07
6.55958e-06
-2.31462e-07
6.52354e-06
-2.54843e-07
6.49009e-06
-2.685e-07
6.45993e-06
-2.74905e-07
6.43328e-06
-2.76317e-07
6.41016e-06
-2.74357e-07
6.39052e-06
-2.70033e-07
6.37428e-06
-2.63987e-07
6.36138e-06
-2.56652e-07
6.3518e-06
-2.48326e-07
6.34557e-06
-2.39227e-07
6.34283e-06
-2.29542e-07
6.34376e-06
-2.19479e-07
6.34861e-06
-2.09273e-07
-1.99516e-07
6.35764e-06
8.79195e-06
-3.68697e-08
8.7604e-06
-1.04649e-07
8.72021e-06
-1.54444e-07
8.67666e-06
-1.87907e-07
8.63238e-06
-2.10567e-07
8.58945e-06
-2.25565e-07
8.54917e-06
-2.34631e-07
8.5122e-06
-2.39348e-07
8.47886e-06
-2.41017e-07
8.44933e-06
-2.40504e-07
8.42372e-06
-2.38373e-07
8.40209e-06
-2.35024e-07
8.38453e-06
-2.30761e-07
8.37113e-06
-2.25832e-07
8.36205e-06
-2.20458e-07
8.35744e-06
-2.14872e-07
8.35747e-06
-2.09297e-07
-2.04304e-07
8.36225e-06
1.15192e-05
-2.5752e-08
1.14889e-05
-7.43141e-08
1.14472e-05
-1.12757e-07
1.13998e-05
-1.40491e-07
1.13498e-05
-1.60546e-07
1.12994e-05
-1.75249e-07
1.12506e-05
-1.85787e-07
1.12044e-05
-1.93116e-07
1.11614e-05
-1.98104e-07
1.11223e-05
-2.01384e-07
1.10873e-05
-2.03378e-07
1.10567e-05
-2.04395e-07
1.10306e-05
-2.04689e-07
1.10093e-05
-2.04484e-07
1.09928e-05
-2.0398e-07
1.09813e-05
-2.0339e-07
1.09749e-05
-2.02867e-07
-2.02938e-07
1.09735e-05
1.48853e-05
-1.55788e-08
1.48561e-05
-4.51439e-08
1.48139e-05
-7.05689e-08
1.47642e-05
-9.0772e-08
1.47105e-05
-1.06856e-07
1.46553e-05
-1.20016e-07
1.46004e-05
-1.30892e-07
1.45472e-05
-1.39938e-07
1.44967e-05
-1.47594e-07
1.44495e-05
-1.54207e-07
1.44061e-05
-1.60019e-07
1.4367e-05
-1.65215e-07
1.43322e-05
-1.69954e-07
1.43021e-05
-1.74382e-07
1.42768e-05
-1.78632e-07
1.42562e-05
-1.82849e-07
1.42404e-05
-1.87079e-07
-1.91771e-07
1.42293e-05
1.87695e-05
-4.36722e-09
1.87381e-05
-1.37266e-08
1.86916e-05
-2.41237e-08
1.86358e-05
-3.4945e-08
1.85748e-05
-4.58116e-08
1.85112e-05
-5.6499e-08
1.84473e-05
-6.69061e-08
1.83843e-05
-7.69844e-08
1.83234e-05
-8.67057e-08
1.82653e-05
-9.60533e-08
1.82103e-05
-1.05047e-07
1.81588e-05
-1.13727e-07
1.8111e-05
-1.22137e-07
1.80669e-05
-1.30329e-07
1.80266e-05
-1.38354e-07
1.79901e-05
-1.46281e-07
1.79571e-05
-1.5409e-07
-1.6211e-07
1.79274e-05
2.2676e-05
7.13497e-09
2.26374e-05
2.48607e-08
2.25784e-05
3.49479e-08
2.25061e-05
3.73589e-08
2.24256e-05
3.46513e-08
2.23403e-05
2.87943e-08
2.22526e-05
2.07884e-08
2.21643e-05
1.13343e-08
2.20766e-05
9.59802e-10
2.19904e-05
-9.82192e-09
2.19061e-05
-2.07466e-08
2.1824e-05
-3.1663e-08
2.17444e-05
-4.24649e-08
2.16671e-05
-5.30822e-08
2.15922e-05
-6.34649e-08
2.15195e-05
-7.35778e-08
2.14488e-05
-8.33637e-08
-9.2996e-08
2.13797e-05
1.56027e-05
2.40106e-08
1.55595e-05
6.80874e-08
1.54991e-05
9.53078e-08
1.54284e-05
1.08122e-07
1.53511e-05
1.11885e-07
1.52702e-05
1.09753e-07
1.51876e-05
1.03347e-07
1.51049e-05
9.40188e-08
1.5023e-05
8.29083e-08
1.49424e-05
7.08144e-08
1.48634e-05
5.82265e-08
1.47863e-05
4.54603e-08
1.47111e-05
3.27372e-08
1.46378e-05
2.02139e-08
1.45663e-05
7.99521e-09
1.44966e-05
-3.84281e-09
1.44285e-05
-1.52546e-08
-2.63083e-08
1.43618e-05
1.23888e-05
4.40356e-08
1.23395e-05
1.17393e-07
1.2275e-05
1.59765e-07
1.22029e-05
1.80314e-07
1.21265e-05
1.88262e-07
1.20486e-05
1.87646e-07
1.1971e-05
1.80893e-07
1.18948e-05
1.70219e-07
1.18205e-05
1.57272e-07
1.17482e-05
1.43085e-07
1.16781e-05
1.28307e-07
1.16102e-05
1.13372e-07
1.15444e-05
9.85649e-08
1.14805e-05
8.40749e-08
1.14185e-05
7.0025e-08
1.13581e-05
5.65044e-08
1.12993e-05
4.35671e-08
3.12054e-08
1.12418e-05
9.55787e-06
6.97566e-08
9.5046e-06
1.70661e-07
9.44252e-06
2.21845e-07
9.37753e-06
2.45308e-07
9.31206e-06
2.53725e-07
9.24822e-06
2.51492e-07
9.18703e-06
2.42077e-07
9.12874e-06
2.2851e-07
9.07329e-06
2.1273e-07
9.02049e-06
1.95876e-07
8.97013e-06
1.78667e-07
8.92194e-06
1.61569e-07
8.87563e-06
1.44869e-07
8.83097e-06
1.28735e-07
8.78773e-06
1.13268e-07
8.74571e-06
9.85286e-08
8.70473e-06
8.45456e-08
7.13302e-08
8.6646e-06
7.17874e-06
1.00462e-07
7.12787e-06
2.21532e-07
7.07668e-06
2.73036e-07
7.0276e-06
2.94393e-07
6.98202e-06
2.99307e-07
6.94099e-06
2.9252e-07
6.90428e-06
2.7878e-07
6.87123e-06
2.61567e-07
6.84117e-06
2.4279e-07
6.81352e-06
2.23523e-07
6.78776e-06
2.04425e-07
6.76345e-06
1.85885e-07
6.74021e-06
1.68109e-07
6.71774e-06
1.51197e-07
6.69583e-06
1.35186e-07
6.67427e-06
1.20087e-07
6.65292e-06
1.05893e-07
9.26165e-08
6.63163e-06
5.24439e-06
1.34785e-07
5.20357e-06
2.6235e-07
5.17123e-06
3.05381e-07
5.14584e-06
3.19787e-07
5.12744e-06
3.17705e-07
5.11508e-06
3.04882e-07
5.107e-06
2.86853e-07
5.1018e-06
2.66771e-07
5.09845e-06
2.46142e-07
5.09618e-06
2.25791e-07
5.09441e-06
2.06189e-07
5.09274e-06
1.87564e-07
5.09084e-06
1.70005e-07
5.08851e-06
1.53523e-07
5.08561e-06
1.38089e-07
5.08203e-06
1.23663e-07
5.07772e-06
1.10205e-07
9.77247e-08
5.07261e-06
3.71356e-06
1.69358e-07
3.6923e-06
2.83609e-07
3.68645e-06
3.11233e-07
3.69078e-06
3.15462e-07
3.70296e-06
3.05525e-07
3.71981e-06
2.88025e-07
3.73885e-06
2.67813e-07
3.75861e-06
2.47014e-07
3.77817e-06
2.26578e-07
3.79694e-06
2.07022e-07
3.81454e-06
1.88595e-07
3.83073e-06
1.71376e-07
3.84538e-06
1.55352e-07
3.85844e-06
1.40465e-07
3.86988e-06
1.26642e-07
3.87974e-06
1.13808e-07
3.88804e-06
1.01904e-07
9.09426e-08
3.89482e-06
2.53448e-06
1.95472e-07
2.54304e-06
2.75053e-07
2.56812e-06
2.86152e-07
2.60272e-06
2.80861e-07
2.64235e-06
2.65893e-07
2.6831e-06
2.47274e-07
2.72303e-06
2.27888e-07
2.76122e-06
2.08825e-07
2.79716e-06
1.90636e-07
2.83059e-06
1.73591e-07
2.86141e-06
1.57775e-07
2.88962e-06
1.4317e-07
2.91526e-06
1.29706e-07
2.93843e-06
1.17292e-07
2.95924e-06
1.05836e-07
2.9778e-06
9.52512e-08
2.99423e-06
8.54726e-08
7.65273e-08
3.00865e-06
1.65395e-06
1.98625e-07
1.69794e-06
2.31063e-07
1.75149e-06
2.3261e-07
1.81022e-06
2.2213e-07
1.86921e-06
2.06902e-07
1.92559e-06
1.90893e-07
1.97859e-06
1.74886e-07
2.02794e-06
1.59479e-07
2.07352e-06
1.45051e-07
2.11539e-06
1.31719e-07
2.15369e-06
1.19476e-07
2.1886e-06
1.08265e-07
2.2203e-06
9.80001e-08
2.24901e-06
8.85871e-08
2.27491e-06
7.99382e-08
2.29818e-06
7.19751e-08
2.31902e-06
6.46326e-08
5.79688e-08
2.33758e-06
1.01775e-06
1.63733e-07
1.09287e-06
1.55949e-07
1.16571e-06
1.59772e-07
1.2387e-06
1.49131e-07
1.30783e-06
1.3778e-07
1.37184e-06
1.26883e-07
1.43091e-06
1.15816e-07
1.48518e-06
1.05208e-07
1.53482e-06
9.54106e-08
1.58009e-06
8.64448e-08
1.6213e-06
7.82684e-08
1.65874e-06
7.08254e-08
1.6927e-06
6.40446e-08
1.72343e-06
5.78513e-08
1.75119e-06
5.21783e-08
1.7762e-06
4.69686e-08
1.79867e-06
4.2156e-08
3.78289e-08
1.81881e-06
5.68977e-07
8.46724e-08
6.576e-07
6.73266e-08
7.37237e-07
8.01349e-08
8.14334e-07
7.2034e-08
8.85642e-07
6.64724e-08
9.5095e-07
6.15745e-08
1.01069e-06
5.60789e-08
1.06515e-06
5.07455e-08
1.11467e-06
4.58932e-08
1.15962e-06
4.14896e-08
1.2004e-06
3.74909e-08
1.23736e-06
3.38674e-08
1.27082e-06
3.05802e-08
1.30109e-06
2.75878e-08
1.32841e-06
2.48534e-08
1.35303e-06
2.23501e-08
1.37517e-06
2.00184e-08
1.79244e-08
1.39507e-06
2.22597e-07
2.89923e-07
3.70058e-07
4.42092e-07
5.08565e-07
5.70139e-07
6.26218e-07
6.76963e-07
7.22857e-07
7.64346e-07
8.01837e-07
8.35705e-07
8.66285e-07
8.93873e-07
9.18726e-07
9.41076e-07
9.61095e-07
9.79019e-07
-2.45555e-08
2.45555e-08
-7.784e-08
5.32846e-08
-1.50196e-07
7.23562e-08
-2.33909e-07
8.37126e-08
-3.2487e-07
9.09617e-08
-4.21044e-07
9.61734e-08
-5.21224e-07
1.00181e-07
-6.2456e-07
1.03335e-07
-7.30358e-07
1.05799e-07
-8.37991e-07
1.07632e-07
-9.46836e-07
1.08846e-07
-1.05626e-06
1.09423e-07
-1.16559e-06
1.09333e-07
-1.27412e-06
1.08523e-07
-1.38105e-06
1.06938e-07
-1.48559e-06
1.04534e-07
-1.58686e-06
1.01272e-07
-1.68398e-06
9.71212e-08
-1.77604e-06
9.20604e-08
-1.86213e-06
8.60847e-08
-1.94133e-06
7.92008e-08
-2.01275e-06
7.14263e-08
-2.07555e-06
6.27936e-08
-2.1289e-06
5.33522e-08
-2.17208e-06
4.31823e-08
-2.20445e-06
3.23684e-08
-2.22545e-06
2.10003e-08
-2.23438e-06
8.92801e-09
-2.23271e-06
-1.67025e-09
-2.22022e-06
-1.249e-08
-2.19707e-06
-2.31502e-08
-2.16342e-06
-3.36454e-08
-2.11946e-06
-4.39662e-08
-2.06538e-06
-5.40753e-08
-2.00146e-06
-6.39197e-08
-1.92802e-06
-7.344e-08
-1.84544e-06
-8.25762e-08
-1.75417e-06
-9.127e-08
-1.65471e-06
-9.94671e-08
-1.54759e-06
-1.07118e-07
-1.43341e-06
-1.14177e-07
-1.3128e-06
-1.20608e-07
-1.18643e-06
-1.26376e-07
-1.05498e-06
-1.3145e-07
-9.19174e-07
-1.35803e-07
-7.79752e-07
-1.39422e-07
-6.37457e-07
-1.42295e-07
-4.9304e-07
-1.44417e-07
-3.47252e-07
-1.45788e-07
-2.00753e-07
-1.46499e-07
-5.39527e-08
-1.46801e-07
9.2654e-08
-1.46607e-07
2.38378e-07
-1.45724e-07
3.8258e-07
-1.44202e-07
5.24691e-07
-1.42111e-07
6.64195e-07
-1.39504e-07
8.00627e-07
-1.36432e-07
9.33569e-07
-1.32943e-07
1.06266e-06
-1.29086e-07
1.18757e-06
-1.24911e-07
1.30803e-06
-1.20466e-07
1.42383e-06
-1.15802e-07
1.5348e-06
-1.10965e-07
1.6408e-06
-1.06002e-07
1.74176e-06
-1.00959e-07
1.83764e-06
-9.5876e-08
1.92843e-06
-9.07926e-08
2.01417e-06
-8.5744e-08
2.09494e-06
-8.07622e-08
2.17081e-06
-7.58755e-08
2.24192e-06
-7.11083e-08
2.3084e-06
-6.64815e-08
2.37041e-06
-6.20122e-08
2.42813e-06
-5.77144e-08
2.48173e-06
-5.35985e-08
2.5314e-06
-4.9672e-08
2.57734e-06
-4.59399e-08
2.61974e-06
-4.24045e-08
2.65881e-06
-3.90658e-08
2.69473e-06
-3.59224e-08
2.7277e-06
-3.29708e-08
2.75791e-06
-3.02063e-08
2.78553e-06
-2.76232e-08
2.81075e-06
-2.52148e-08
2.83372e-06
-2.29738e-08
2.85461e-06
-2.08923e-08
2.87357e-06
-1.8962e-08
2.89075e-06
-1.71746e-08
2.90627e-06
-1.55215e-08
2.92026e-06
-1.39943e-08
2.93285e-06
-1.25845e-08
2.94413e-06
-1.12842e-08
2.95422e-06
-1.00858e-08
2.9632e-06
-8.98199e-09
2.97117e-06
-7.96591e-09
2.9782e-06
-7.03105e-09
2.98437e-06
-6.17115e-09
2.98975e-06
-5.38017e-09
2.9944e-06
-4.65259e-09
2.99838e-06
-3.98307e-09
3.00175e-06
-3.36666e-09
3.00455e-06
-2.79857e-09
3.00682e-06
-2.27446e-09
3.00861e-06
-1.78901e-09
3.00995e-06
-1.33465e-09
3.01086e-06
-9.07413e-10
3.01135e-06
-4.90867e-10
3.01139e-06
-4.05254e-11
3.01083e-06
5.52192e-10
3.00975e-06
1.08493e-09
3.00821e-06
1.5355e-09
3.0063e-06
1.90935e-09
3.0041e-06
2.20773e-09
3.00165e-06
2.44326e-09
2.99902e-06
2.63101e-09
2.99624e-06
2.784e-09
2.99333e-06
2.91255e-09
2.9903e-06
3.02436e-09
2.98718e-06
3.1243e-09
2.98396e-06
3.21571e-09
2.98066e-06
3.30039e-09
2.97728e-06
3.37964e-09
2.97383e-06
3.45411e-09
2.9703e-06
3.52448e-09
2.96671e-06
3.59114e-09
2.96306e-06
3.65447e-09
2.95934e-06
3.71498e-09
2.95557e-06
3.7729e-09
2.95174e-06
3.82858e-09
2.94786e-06
3.88233e-09
2.94392e-06
3.93426e-09
2.93994e-06
3.98468e-09
2.93591e-06
4.0336e-09
2.93182e-06
4.08124e-09
2.9277e-06
4.12767e-09
2.92352e-06
4.17301e-09
2.91931e-06
4.21728e-09
2.91505e-06
4.26073e-09
2.91074e-06
4.30335e-09
2.9064e-06
4.34533e-09
2.90201e-06
4.38684e-09
2.89758e-06
4.42803e-09
2.89311e-06
4.46915e-09
2.8886e-06
4.51034e-09
2.88405e-06
4.55186e-09
2.87946e-06
4.5939e-09
2.87482e-06
4.63676e-09
2.87014e-06
4.6807e-09
2.86541e-06
4.72604e-09
2.86064e-06
4.77306e-09
2.85582e-06
4.82205e-09
2.85095e-06
4.87348e-09
2.84602e-06
4.92783e-09
2.84103e-06
4.98562e-09
2.83598e-06
5.04766e-09
2.83087e-06
5.11488e-09
2.82568e-06
5.18861e-09
2.82041e-06
5.2704e-09
2.81505e-06
5.36237e-09
2.80958e-06
5.46724e-09
2.80399e-06
5.58863e-09
2.79826e-06
5.73113e-09
2.79236e-06
5.90089e-09
2.78625e-06
6.10588e-09
2.7799e-06
6.35688e-09
2.77323e-06
6.66824e-09
2.76617e-06
7.05945e-09
2.75861e-06
7.55763e-09
2.75041e-06
8.20087e-09
2.74137e-06
9.0441e-09
2.7312e-06
1.01689e-08
2.7195e-06
1.17003e-08
2.70566e-06
1.38388e-08
2.68874e-06
1.6919e-08
2.6672e-06
2.15439e-08
2.63841e-06
2.87837e-08
2.59728e-06
4.11315e-08
2.53562e-06
6.166e-08
2.42789e-06
1.07735e-07
1.62912e-07
2.26497e-06
-8.73162e-08
1.11872e-07
-1.88055e-07
1.54024e-07
-2.95851e-07
1.80152e-07
-4.09522e-07
1.97384e-07
-5.27206e-07
2.08646e-07
-6.47042e-07
2.16009e-07
-7.67488e-07
2.20627e-07
-8.87286e-07
2.23132e-07
-1.0054e-06
2.2391e-07
-1.12098e-06
2.23212e-07
-1.23334e-06
2.21205e-07
-1.3419e-06
2.17989e-07
-1.44618e-06
2.13616e-07
-1.54576e-06
2.08097e-07
-1.64025e-06
2.01424e-07
-1.72929e-06
1.93574e-07
-1.81254e-06
1.84522e-07
-1.88966e-06
1.74249e-07
-1.96035e-06
1.62745e-07
-2.02428e-06
1.50015e-07
-2.08116e-06
1.36084e-07
-2.13073e-06
1.20999e-07
-2.17277e-06
1.04828e-07
-2.20709e-06
8.76686e-08
-2.23354e-06
6.96336e-08
-2.25202e-06
5.08558e-08
-2.2625e-06
3.14813e-08
-2.26518e-06
1.16032e-08
-2.25828e-06
-8.57161e-09
-2.24169e-06
-2.90776e-08
-2.2151e-06
-4.97438e-08
-2.17837e-06
-7.03753e-08
-2.13153e-06
-9.08047e-08
-2.07473e-06
-1.10877e-07
-2.0082e-06
-1.30448e-07
-1.93226e-06
-1.4938e-07
-1.84729e-06
-1.67545e-07
-1.75373e-06
-1.84829e-07
-1.65207e-06
-2.01126e-07
-1.54285e-06
-2.16343e-07
-1.42662e-06
-2.304e-07
-1.30401e-06
-2.43227e-07
-1.17562e-06
-2.54766e-07
-1.04209e-06
-2.64972e-07
-9.04089e-07
-2.73808e-07
-7.62259e-07
-2.81251e-07
-6.17261e-07
-2.87294e-07
-4.6974e-07
-2.91938e-07
-3.20318e-07
-2.9521e-07
-1.6964e-07
-2.97176e-07
-1.85102e-08
-2.97931e-07
1.32339e-07
-2.97456e-07
2.82376e-07
-2.95761e-07
4.31072e-07
-2.92898e-07
5.77907e-07
-2.88946e-07
7.22393e-07
-2.8399e-07
8.64076e-07
-2.78115e-07
1.00254e-06
-2.71411e-07
1.13743e-06
-2.63973e-07
1.26841e-06
-2.55892e-07
1.39521e-06
-2.47265e-07
1.51759e-06
-2.38185e-07
1.63537e-06
-2.28743e-07
1.7484e-06
-2.19031e-07
1.85657e-06
-2.09132e-07
1.95983e-06
-1.99128e-07
2.05813e-06
-1.89096e-07
2.15149e-06
-1.79103e-07
2.23994e-06
-1.69213e-07
2.32355e-06
-1.59484e-07
2.4024e-06
-1.49963e-07
2.47661e-06
-1.40694e-07
2.54631e-06
-1.31712e-07
2.61165e-06
-1.23046e-07
2.67277e-06
-1.14719e-07
2.72984e-06
-1.06749e-07
2.78305e-06
-9.91464e-08
2.83256e-06
-9.19184e-08
2.87857e-06
-8.50676e-08
2.92124e-06
-7.85926e-08
2.96075e-06
-7.24889e-08
2.9973e-06
-6.6749e-08
3.03104e-06
-6.13634e-08
3.06214e-06
-5.63205e-08
3.09078e-06
-5.16075e-08
3.11709e-06
-4.72101e-08
3.14125e-06
-4.31136e-08
3.16337e-06
-3.93024e-08
3.18361e-06
-3.57611e-08
3.20209e-06
-3.24738e-08
3.21893e-06
-2.94251e-08
3.23425e-06
-2.65998e-08
3.24815e-06
-2.39836e-08
3.26073e-06
-2.15624e-08
3.27208e-06
-1.9323e-08
3.28231e-06
-1.72526e-08
3.29147e-06
-1.53388e-08
3.29966e-06
-1.35702e-08
3.30695e-06
-1.19356e-08
3.31339e-06
-1.04245e-08
3.31905e-06
-9.02712e-09
3.32398e-06
-7.73415e-09
3.32825e-06
-6.53654e-09
3.33188e-06
-5.42537e-09
3.33494e-06
-4.39158e-09
3.33746e-06
-3.42706e-09
3.3395e-06
-2.52759e-09
3.34115e-06
-1.69509e-09
3.34259e-06
-8.85556e-10
3.34377e-06
-9.40292e-11
3.34467e-06
6.29473e-10
3.34526e-06
1.32666e-09
3.3455e-06
1.96362e-09
3.3454e-06
2.54572e-09
3.34495e-06
3.07571e-09
3.34418e-06
3.55781e-09
3.34309e-06
3.99691e-09
3.34172e-06
4.39792e-09
3.34008e-06
4.76534e-09
3.33819e-06
5.10304e-09
3.33608e-06
5.41435e-09
3.33376e-06
5.70215e-09
3.33124e-06
5.96893e-09
3.32855e-06
6.21689e-09
3.32569e-06
6.44803e-09
3.32268e-06
6.66407e-09
3.31953e-06
6.86653e-09
3.31625e-06
7.05689e-09
3.31284e-06
7.23643e-09
3.30931e-06
7.40623e-09
3.30568e-06
7.56734e-09
3.30195e-06
7.72066e-09
3.29811e-06
7.86696e-09
3.29419e-06
8.007e-09
3.29017e-06
8.1414e-09
3.28608e-06
8.27059e-09
3.2819e-06
8.3952e-09
3.27764e-06
8.5155e-09
3.27331e-06
8.63191e-09
3.26891e-06
8.74474e-09
3.26445e-06
8.85433e-09
3.25991e-06
8.96089e-09
3.25532e-06
9.0649e-09
3.25066e-06
9.16663e-09
3.24595e-06
9.26662e-09
3.24118e-06
9.36529e-09
3.23635e-06
9.46318e-09
3.23147e-06
9.56086e-09
3.22654e-06
9.65902e-09
3.22155e-06
9.75833e-09
3.21651e-06
9.85955e-09
3.21142e-06
9.96362e-09
3.20628e-06
1.00714e-08
3.20108e-06
1.01841e-08
3.19583e-06
1.03031e-08
3.19051e-06
1.043e-08
3.18513e-06
1.05666e-08
3.17969e-06
1.07156e-08
3.17417e-06
1.08801e-08
3.16857e-06
1.1064e-08
3.16289e-06
1.12727e-08
3.15711e-06
1.15128e-08
3.15121e-06
1.17935e-08
3.14519e-06
1.21265e-08
3.13902e-06
1.25274e-08
3.13267e-06
1.30175e-08
3.12611e-06
1.36249e-08
3.11928e-06
1.43886e-08
3.11212e-06
1.53627e-08
3.10454e-06
1.6624e-08
3.09642e-06
1.82847e-08
3.08761e-06
2.05121e-08
3.07788e-06
2.35687e-08
3.06693e-06
2.78722e-08
3.0543e-06
3.41701e-08
3.03943e-06
4.36561e-08
3.02127e-06
5.92872e-08
2.99857e-06
8.43594e-08
2.96898e-06
1.37327e-07
2.20907e-07
2.91098e-06
-1.08542e-07
2.20414e-07
-2.21285e-07
2.66766e-07
-3.34633e-07
2.935e-07
-4.4896e-07
3.11711e-07
-5.64005e-07
3.2369e-07
-6.78975e-07
3.30979e-07
-7.93036e-07
3.34688e-07
-9.05477e-07
3.35573e-07
-1.01574e-06
3.34173e-07
-1.12341e-06
3.30885e-07
-1.2282e-06
3.25988e-07
-1.32987e-06
3.19663e-07
-1.42825e-06
3.11999e-07
-1.52317e-06
3.03016e-07
-1.61442e-06
2.92675e-07
-1.70175e-06
2.80905e-07
-1.78485e-06
2.67618e-07
-1.86333e-06
2.52725e-07
-1.93673e-06
2.36153e-07
-2.00457e-06
2.17851e-07
-2.06629e-06
1.97802e-07
-2.12131e-06
1.76025e-07
-2.16906e-06
1.52577e-07
-2.20895e-06
1.27553e-07
-2.2404e-06
1.01084e-07
-2.26287e-06
7.33303e-08
-2.27586e-06
4.44676e-08
-2.27898e-06
1.47251e-08
-2.27184e-06
-1.57141e-08
-2.25431e-06
-4.66094e-08
-2.22634e-06
-7.77049e-08
-2.18798e-06
-1.08736e-07
-2.13934e-06
-1.3945e-07
-2.08061e-06
-1.69606e-07
-2.01208e-06
-1.9898e-07
-1.93409e-06
-2.27366e-07
-1.84706e-06
-2.54575e-07
-1.75146e-06
-2.80435e-07
-1.64778e-06
-3.04796e-07
-1.5366e-06
-3.27526e-07
-1.41849e-06
-3.4851e-07
-1.29407e-06
-3.67653e-07
-1.16395e-06
-3.84878e-07
-1.0288e-06
-4.00124e-07
-8.89263e-07
-4.13347e-07
-7.45993e-07
-4.24522e-07
-5.99645e-07
-4.33642e-07
-4.50866e-07
-4.40716e-07
-3.00298e-07
-4.45778e-07
-1.48596e-07
-4.48879e-07
3.52864e-09
-4.50055e-07
1.55408e-07
-4.49336e-07
3.06463e-07
-4.46816e-07
4.56145e-07
-4.4258e-07
6.03937e-07
-4.36738e-07
7.49354e-07
-4.29407e-07
8.91955e-07
-4.20715e-07
1.03134e-06
-4.10793e-07
1.16714e-06
-3.99778e-07
1.29906e-06
-3.87809e-07
1.42682e-06
-3.75024e-07
1.5502e-06
-3.61563e-07
1.66901e-06
-3.47559e-07
1.78313e-06
-3.33145e-07
1.89244e-06
-3.18445e-07
1.99689e-06
-3.03579e-07
2.09645e-06
-2.88656e-07
2.19113e-06
-2.73779e-07
2.28095e-06
-2.5904e-07
2.36599e-06
-2.44523e-07
2.44633e-06
-2.30301e-07
2.52207e-06
-2.16437e-07
2.59334e-06
-2.02984e-07
2.66028e-06
-1.89986e-07
2.72304e-06
-1.77478e-07
2.78178e-06
-1.65487e-07
2.83666e-06
-1.5403e-07
2.88787e-06
-1.43119e-07
2.93556e-06
-1.3276e-07
2.97992e-06
-1.22951e-07
3.02111e-06
-1.13687e-07
3.05932e-06
-1.04957e-07
3.09471e-06
-9.67494e-08
3.12743e-06
-8.90474e-08
3.15766e-06
-8.1833e-08
3.18554e-06
-7.50861e-08
3.21121e-06
-6.87858e-08
3.23482e-06
-6.291e-08
3.25649e-06
-5.74364e-08
3.27636e-06
-5.23426e-08
3.29454e-06
-4.76064e-08
3.31115e-06
-4.3206e-08
3.32628e-06
-3.91206e-08
3.34005e-06
-3.53296e-08
3.35254e-06
-3.18139e-08
3.36384e-06
-2.85545e-08
3.37404e-06
-2.55336e-08
3.3832e-06
-2.27341e-08
3.39141e-06
-2.01398e-08
3.39872e-06
-1.77354e-08
3.4052e-06
-1.55064e-08
3.4109e-06
-1.34392e-08
3.41589e-06
-1.15209e-08
3.4202e-06
-9.739e-09
3.42389e-06
-8.08211e-09
3.427e-06
-6.53885e-09
3.42958e-06
-5.09955e-09
3.43164e-06
-3.75992e-09
3.43326e-06
-2.50732e-09
3.4345e-06
-1.33141e-09
3.43538e-06
-2.49124e-10
3.43591e-06
7.93538e-10
3.43612e-06
1.75538e-09
3.43601e-06
2.65467e-09
3.43559e-06
3.49229e-09
3.43488e-06
4.27156e-09
3.43388e-06
4.99589e-09
3.43261e-06
5.66891e-09
3.43108e-06
6.29402e-09
3.42931e-06
6.87474e-09
3.42731e-06
7.41443e-09
3.4251e-06
7.91632e-09
3.42268e-06
8.38337e-09
3.42008e-06
8.81865e-09
3.4173e-06
9.22475e-09
3.41436e-06
9.60437e-09
3.41127e-06
9.95989e-09
3.40803e-06
1.02935e-08
3.40466e-06
1.06073e-08
3.40116e-06
1.09031e-08
3.39755e-06
1.11826e-08
3.39382e-06
1.14475e-08
3.38999e-06
1.16991e-08
3.38606e-06
1.19387e-08
3.38203e-06
1.21675e-08
3.37792e-06
1.23864e-08
3.37372e-06
1.25964e-08
3.36943e-06
1.27983e-08
3.36507e-06
1.29926e-08
3.36064e-06
1.31801e-08
3.35613e-06
1.33613e-08
3.35155e-06
1.35366e-08
3.34691e-06
1.37067e-08
3.34221e-06
1.38722e-08
3.33744e-06
1.40336e-08
3.33261e-06
1.41917e-08
3.32773e-06
1.43473e-08
3.32279e-06
1.45013e-08
3.31779e-06
1.46547e-08
3.31274e-06
1.48084e-08
3.30764e-06
1.49637e-08
3.30248e-06
1.51219e-08
3.29727e-06
1.52844e-08
3.292e-06
1.5453e-08
3.28667e-06
1.56297e-08
3.28128e-06
1.58169e-08
3.27583e-06
1.60173e-08
3.27031e-06
1.62345e-08
3.26472e-06
1.64728e-08
3.25905e-06
1.67379e-08
3.25328e-06
1.70368e-08
3.24742e-06
1.73789e-08
3.24143e-06
1.77766e-08
3.23532e-06
1.82458e-08
3.22904e-06
1.88079e-08
3.22256e-06
1.94913e-08
3.21585e-06
2.03343e-08
3.20885e-06
2.13891e-08
3.20149e-06
2.27277e-08
3.19366e-06
2.44519e-08
3.18524e-06
2.67077e-08
3.17604e-06
2.97109e-08
3.16581e-06
3.37919e-08
3.15422e-06
3.94658e-08
3.14078e-06
4.76115e-08
3.12481e-06
5.96264e-08
3.1056e-06
7.84958e-08
3.08174e-06
1.08219e-07
3.05691e-06
1.62159e-07
2.48212e-07
3.0296e-06
-1.11106e-07
3.3152e-07
-2.2564e-07
3.813e-07
-3.38883e-07
4.06743e-07
-4.50969e-07
4.23798e-07
-5.62176e-07
4.34897e-07
-6.72467e-07
4.41269e-07
-7.81673e-07
4.43895e-07
-8.89629e-07
4.43529e-07
-9.96205e-07
4.4075e-07
-1.1013e-06
4.35982e-07
-1.20483e-06
4.29511e-07
-1.30665e-06
4.21488e-07
-1.4066e-06
4.11946e-07
-1.5044e-06
4.0082e-07
-1.5997e-06
3.87972e-07
-1.69202e-06
3.73225e-07
-1.78079e-06
3.56388e-07
-1.86535e-06
3.37284e-07
-1.94496e-06
3.15768e-07
-2.01885e-06
2.91744e-07
-2.08623e-06
2.65175e-07
-2.14629e-06
2.36087e-07
-2.19828e-06
2.04571e-07
-2.24151e-06
1.70777e-07
-2.27533e-06
1.34911e-07
-2.29923e-06
9.72256e-08
-2.31277e-06
5.80108e-08
-2.31563e-06
1.75836e-08
-2.30762e-06
-2.37243e-08
-2.28866e-06
-6.55714e-08
-2.25876e-06
-1.07599e-07
-2.21805e-06
-1.49453e-07
-2.1667e-06
-1.90794e-07
-2.10501e-06
-2.31302e-07
-2.03331e-06
-2.70681e-07
-1.95202e-06
-3.08659e-07
-1.8616e-06
-3.44992e-07
-1.76257e-06
-3.79463e-07
-1.65549e-06
-4.1188e-07
-1.54093e-06
-4.42078e-07
-1.41953e-06
-4.69916e-07
-1.2919e-06
-4.95279e-07
-1.15871e-06
-5.18072e-07
-1.02061e-06
-5.38223e-07
-8.78272e-07
-5.55684e-07
-7.32369e-07
-5.70424e-07
-5.83572e-07
-5.82439e-07
-4.32545e-07
-5.91743e-07
-2.79945e-07
-5.98377e-07
-1.26429e-07
-6.02395e-07
2.73422e-08
-6.03826e-07
1.80735e-07
-6.02728e-07
3.33144e-07
-5.99225e-07
4.84009e-07
-5.93444e-07
6.32804e-07
-5.85533e-07
7.79048e-07
-5.75652e-07
9.22302e-07
-5.63969e-07
1.06217e-06
-5.50665e-07
1.19832e-06
-5.3592e-07
1.33043e-06
-5.19922e-07
1.45826e-06
-5.02856e-07
1.58161e-06
-4.84907e-07
1.7003e-06
-4.66252e-07
1.81422e-06
-4.47066e-07
1.92329e-06
-4.27513e-07
2.02746e-06
-4.07748e-07
2.12672e-06
-3.87916e-07
2.22109e-06
-3.6815e-07
2.31062e-06
-3.48569e-07
2.39538e-06
-3.29282e-07
2.47546e-06
-3.10384e-07
2.55098e-06
-2.91956e-07
2.62207e-06
-2.74069e-07
2.68886e-06
-2.56778e-07
2.75151e-06
-2.4013e-07
2.81018e-06
-2.24159e-07
2.86504e-06
-2.08889e-07
2.91626e-06
-1.94336e-07
2.964e-06
-1.80507e-07
3.00845e-06
-1.67399e-07
3.04977e-06
-1.55008e-07
3.08814e-06
-1.4332e-07
3.12371e-06
-1.32318e-07
3.15664e-06
-1.21982e-07
3.18709e-06
-1.12288e-07
3.21522e-06
-1.0321e-07
3.24115e-06
-9.47216e-08
3.26504e-06
-8.67938e-08
3.287e-06
-7.93977e-08
3.30716e-06
-7.25045e-08
3.32564e-06
-6.60852e-08
3.34255e-06
-6.01118e-08
3.35798e-06
-5.45569e-08
3.37205e-06
-4.93939e-08
3.38483e-06
-4.45975e-08
3.39642e-06
-4.01433e-08
3.40689e-06
-3.60077e-08
3.41633e-06
-3.21687e-08
3.42479e-06
-2.8605e-08
3.43235e-06
-2.52967e-08
3.43907e-06
-2.22249e-08
3.44501e-06
-1.93719e-08
3.45021e-06
-1.67209e-08
3.45472e-06
-1.42562e-08
3.4586e-06
-1.1963e-08
3.46189e-06
-9.8273e-09
3.46463e-06
-7.83667e-09
3.46685e-06
-5.98228e-09
3.4686e-06
-4.2537e-09
3.46991e-06
-2.64083e-09
3.4708e-06
-1.13907e-09
3.47132e-06
2.70841e-10
3.47149e-06
1.58657e-09
3.47133e-06
2.81661e-09
3.47085e-06