/*--------------------------------*- C++ -*----------------------------------*\
| =========                 |                                                 |
| \\      /  F ield         | OpenFOAM: The Open Source CFD Toolbox           |
|  \\    /   O peration     | Version:  2412                                  |
|   \\  /    A nd           | Website:  www.openfoam.com                      |
|    \\/     M anipulation  |                                                 |
\*---------------------------------------------------------------------------*/
FoamFile
{
    version     2.0;
    format      ascii;
    arch        "LSB;label=32;scalar=64";
    class       volVectorField;
    location    "0.01";
    object      U;
}
// * * * * * * * * * * * * * * * * * * * * * * * * * * * * * * * * * * * * * //

dimensions      [0 1 -1 0 0 0 0];

internalField   nonuniform List<vector> 
12225
(
(0.377261 -0.200516 0)
(0.543779 -0.0519032 0)
(0.712004 -0.0342593 0)
(0.897321 -0.0309813 0)
(1.06619 -0.0305622 0)
(1.22113 -0.0296013 0)
(1.3651 -0.0279995 0)
(1.49741 -0.0263711 0)
(1.61833 -0.0248439 0)
(1.72891 -0.023387 0)
(1.83004 -0.0219807 0)
(1.92231 -0.0205951 0)
(2.00612 -0.0191794 0)
(2.08162 -0.0176572 0)
(2.14864 -0.0159809 0)
(2.20736 -0.0140204 0)
(2.2561 -0.0126438 0)
(2.31123 -0.0170675 0)
(0.93342 -0.0316132 0)
(1.05691 -0.0589453 0)
(1.23861 -0.0695765 0)
(1.42667 -0.0656888 0)
(1.59521 -0.063637 0)
(1.75016 -0.0614654 0)
(1.89454 -0.0587576 0)
(2.02808 -0.0560528 0)
(2.15109 -0.0534502 0)
(2.26439 -0.0509221 0)
(2.36868 -0.0484411 0)
(2.46446 -0.0459392 0)
(2.55207 -0.043302 0)
(2.63157 -0.0403673 0)
(2.7028 -0.0369917 0)
(2.7652 -0.032919 0)
(2.81743 -0.0300098 0)
(2.85377 -0.0258379 0)
(1.39961 -0.0847117 0)
(1.49253 -0.106245 0)
(1.6577 -0.108552 0)
(1.82937 -0.10414 0)
(1.9846 -0.101196 0)
(2.12887 -0.0979486 0)
(2.26418 -0.0941626 0)
(2.39011 -0.0903357 0)
(2.50687 -0.0865919 0)
(2.61504 -0.0829213 0)
(2.7151 -0.0792809 0)
(2.80743 -0.0755625 0)
(2.89225 -0.0715873 0)
(2.96957 -0.0670993 0)
(3.03915 -0.0617929 0)
(3.10011 -0.0552199 0)
(3.15066 -0.0476653 0)
(3.18358 -0.0355849 0)
(1.89746 -0.115559 0)
(1.94749 -0.14433 0)
(2.07931 -0.147148 0)
(2.22587 -0.14423 0)
(2.36205 -0.140688 0)
(2.49083 -0.136504 0)
(2.61293 -0.131751 0)
(2.72757 -0.12685 0)
(2.83469 -0.121972 0)
(2.93457 -0.117141 0)
(3.02751 -0.112304 0)
(3.1137 -0.107316 0)
(3.19325 -0.101936 0)
(3.2661 -0.0958096 0)
(3.33197 -0.088447 0)
(3.38993 -0.0790607 0)
(3.43866 -0.0666786 0)
(3.47233 -0.0459857 0)
(2.43118 -0.126157 0)
(2.44222 -0.171535 0)
(2.53389 -0.180649 0)
(2.64994 -0.181165 0)
(2.76291 -0.178142 0)
(2.87261 -0.173678 0)
(2.97844 -0.168417 0)
(3.07909 -0.162797 0)
(3.17411 -0.157065 0)
(3.26349 -0.151297 0)
(3.34727 -0.145443 0)
(3.42546 -0.139333 0)
(3.49807 -0.132675 0)
(3.56497 -0.125024 0)
(3.62586 -0.115723 0)
(3.67999 -0.10369 0)
(3.72688 -0.0871771 0)
(3.76204 -0.0608144 0)
(2.99696 -0.124289 0)
(2.97904 -0.187807 0)
(3.03058 -0.206001 0)
(3.11326 -0.211749 0)
(3.20002 -0.210789 0)
(3.28783 -0.207016 0)
(3.37491 -0.201918 0)
(3.45933 -0.196114 0)
(3.54023 -0.189968 0)
(3.61725 -0.183628 0)
(3.69017 -0.177069 0)
(3.75885 -0.170114 0)
(3.82314 -0.162438 0)
(3.88287 -0.15353 0)
(3.93782 -0.142617 0)
(3.98743 -0.128462 0)
(4.03204 -0.10906 0)
(4.06809 -0.0798818 0)
(3.58847 -0.11546 0)
(3.55316 -0.193978 0)
(3.56965 -0.221975 0)
(3.61902 -0.23421 0)
(3.67815 -0.236856 0)
(3.74225 -0.234889 0)
(3.80874 -0.230754 0)
(3.87521 -0.225412 0)
(3.94035 -0.219388 0)
(4.00348 -0.212932 0)
(4.06414 -0.206067 0)
(4.12201 -0.198632 0)
(4.17683 -0.190291 0)
(4.22838 -0.180506 0)
(4.27651 -0.168464 0)
(4.32091 -0.152924 0)
(4.36253 -0.13199 0)
(4.39825 -0.102229 0)
(4.19895 -0.10311 0)
(4.15631 -0.191568 0)
(4.14592 -0.22856 0)
(4.16506 -0.247603 0)
(4.19715 -0.254985 0)
(4.23708 -0.255895 0)
(4.28208 -0.253572 0)
(4.32954 -0.249401 0)
(4.37781 -0.244105 0)
(4.42595 -0.23806 0)
(4.47329 -0.231361 0)
(4.51934 -0.223887 0)
(4.56376 -0.215323 0)
(4.6063 -0.205148 0)
(4.64688 -0.192582 0)
(4.68538 -0.176505 0)
(4.72315 -0.155339 0)
(4.75707 -0.126716 0)
(4.82199 -0.0895733 0)
(4.77893 -0.182575 0)
(4.75067 -0.226673 0)
(4.74502 -0.25182 0)
(4.75279 -0.264339 0)
(4.76979 -0.268917 0)
(4.79364 -0.269166 0)
(4.82194 -0.266862 0)
(4.85296 -0.262924 0)
(4.88558 -0.257859 0)
(4.919 -0.251854 0)
(4.95263 -0.244849 0)
(4.98604 -0.236582 0)
(5.01899 -0.22659 0)
(5.05143 -0.214193 0)
(5.08339 -0.198474 0)
(5.11641 -0.178265 0)
(5.14709 -0.152095 0)
(5.45159 -0.0763078 0)
(5.41173 -0.168987 0)
(5.37345 -0.21779 0)
(5.34955 -0.247595 0)
(5.33742 -0.26484 0)
(5.33437 -0.273375 0)
(5.33883 -0.276702 0)
(5.34897 -0.276827 0)
(5.36327 -0.274821 0)
(5.3806 -0.271293 0)
(5.40012 -0.266525 0)
(5.42121 -0.260534 0)
(5.44343 -0.253134 0)
(5.46652 -0.243957 0)
(5.49049 -0.232469 0)
(5.51541 -0.217993 0)
(5.5429 -0.199779 0)
(5.56908 -0.177045 0)
(6.08181 -0.0640477 0)
(6.04626 -0.152478 0)
(6.00354 -0.203531 0)
(5.96763 -0.236277 0)
(5.94078 -0.257228 0)
(5.92183 -0.269447 0)
(5.90997 -0.275967 0)
(5.90416 -0.278821 0)
(5.90328 -0.279151 0)
(5.9064 -0.277622 0)
(5.91278 -0.274583 0)
(5.92184 -0.270133 0)
(5.93318 -0.264174 0)
(5.94657 -0.256453 0)
(5.96205 -0.246604 0)
(5.9797 -0.234195 0)
(6.0011 -0.218844 0)
(6.02184 -0.200258 0)
(6.65477 -0.0536755 0)
(6.62266 -0.135777 0)
(6.57926 -0.186947 0)
(6.53711 -0.220941 0)
(6.50133 -0.244154 0)
(6.47195 -0.259111 0)
(6.44866 -0.268291 0)
(6.43103 -0.273613 0)
(6.41845 -0.276216 0)
(6.41027 -0.276766 0)
(6.40594 -0.275643 0)
(6.40501 -0.273002 0)
(6.40715 -0.268826 0)
(6.4122 -0.262974 0)
(6.42022 -0.255228 0)
(6.43127 -0.245362 0)
(6.44688 -0.233233 0)
(6.46212 -0.218968 0)
(7.20993 -0.0442056 0)
(7.18227 -0.11828 0)
(7.14052 -0.168175 0)
(7.09535 -0.202444 0)
(7.05397 -0.226974 0)
(7.01752 -0.24398 0)
(6.98599 -0.255398 0)
(6.95937 -0.26295 0)
(6.93751 -0.267741 0)
(6.92009 -0.270416 0)
(6.90677 -0.271357 0)
(6.89726 -0.270758 0)
(6.89136 -0.268672 0)
(6.88898 -0.265058 0)
(6.89021 -0.259832 0)
(6.8951 -0.252939 0)
(6.90502 -0.244393 0)
(6.91484 -0.234687 0)
(7.81833 -0.0351648 0)
(7.79547 -0.098553 0)
(7.75757 -0.144974 0)
(7.71224 -0.178241 0)
(7.66787 -0.203081 0)
(7.6269 -0.221471 0)
(7.58957 -0.234808 0)
(7.55617 -0.244483 0)
(7.52692 -0.251517 0)
(7.50183 -0.256524 0)
(7.48079 -0.259871 0)
(7.4637 -0.261776 0)
(7.4505 -0.262353 0)
(7.44118 -0.261655 0)
(7.43587 -0.259718 0)
(7.4346 -0.256627 0)
(7.43857 -0.252534 0)
(7.44265 -0.248102 0)
(8.45877 -0.0270168 0)
(8.44091 -0.0779668 0)
(8.40888 -0.118334 0)
(8.36671 -0.148779 0)
(8.32263 -0.172493 0)
(8.28019 -0.191174 0)
(8.2401 -0.205765 0)
(8.20283 -0.217224 0)
(8.16888 -0.226375 0)
(8.13857 -0.233765 0)
(8.112 -0.239733 0)
(8.08924 -0.244504 0)
(8.07034 -0.248241 0)
(8.05539 -0.251072 0)
(8.04453 -0.25313 0)
(8.03776 -0.25459 0)
(8.0361 -0.255683 0)
(8.03473 -0.257125 0)
(9.08886 -0.0197584 0)
(9.07554 -0.0578525 0)
(9.05029 -0.0901446 0)
(9.01406 -0.115872 0)
(8.9738 -0.136789 0)
(8.9335 -0.154229 0)
(8.89427 -0.168864 0)
(8.85663 -0.181282 0)
(8.82129 -0.19205 0)
(8.78879 -0.201586 0)
(8.75946 -0.210166 0)
(8.73351 -0.217989 0)
(8.71108 -0.225226 0)
(8.6923 -0.232042 0)
(8.67733 -0.238614 0)
(8.66615 -0.245165 0)
(8.65954 -0.251917 0)
(8.65346 -0.259591 0)
(9.6331 -0.0130782 0)
(9.62294 -0.0386264 0)
(9.6032 -0.0617652 0)
(9.57302 -0.0814641 0)
(9.53795 -0.0984102 0)
(9.5019 -0.113414 0)
(9.46611 -0.126922 0)
(9.43105 -0.139272 0)
(9.39733 -0.150804 0)
(9.36556 -0.161802 0)
(9.33616 -0.172471 0)
(9.30937 -0.182974 0)
(9.28539 -0.193462 0)
(9.26435 -0.204094 0)
(9.24637 -0.215038 0)
(9.23142 -0.2265 0)
(9.21996 -0.238625 0)
(9.20938 -0.252065 0)
(9.9641 -0.00628377 0)
(9.95504 -0.0189167 0)
(9.93769 -0.0317774 0)
(9.91042 -0.0441948 0)
(9.87795 -0.0561884 0)
(9.84407 -0.0679444 0)
(9.81006 -0.0795808 0)
(9.77631 -0.0911976 0)
(9.74331 -0.102912 0)
(9.71157 -0.114828 0)
(9.68145 -0.127036 0)
(9.65314 -0.139625 0)
(9.62674 -0.152699 0)
(9.60232 -0.16637 0)
(9.57992 -0.180759 0)
(9.55949 -0.196019 0)
(9.54108 -0.212205 0)
(9.52411 -0.22988 0)
(9.87492 0.001107 0)
(9.8663 0.0028544 0)
(9.84837 0.00207289 0)
(9.81961 -0.00127163 0)
(9.78487 -0.00668878 0)
(9.74796 -0.0136909 0)
(9.71014 -0.0220022 0)
(9.67178 -0.0314321 0)
(9.63333 -0.0418053 0)
(9.59533 -0.0530049 0)
(9.55812 -0.0649741 0)
(9.52186 -0.0776922 0)
(9.48662 -0.0911602 0)
(9.45243 -0.105401 0)
(9.41929 -0.12045 0)
(9.3872 -0.136355 0)
(9.35579 -0.153094 0)
(9.32645 -0.171044 0)
(9.2842 0.0100718 0)
(9.26922 0.0288234 0)
(9.24184 0.0418047 0)
(9.20207 0.0488002 0)
(9.15627 0.051241 0)
(9.10845 0.0503382 0)
(9.0597 0.0467531 0)
(9.01047 0.0409995 0)
(8.96135 0.0335541 0)
(8.91287 0.0247676 0)
(8.86533 0.0148624 0)
(8.81887 0.00398296 0)
(8.77355 -0.00777032 0)
(8.72937 -0.0203248 0)
(8.68631 -0.0336255 0)
(8.64436 -0.0476302 0)
(8.6031 -0.062286 0)
(8.5646 -0.0777558 0)
(8.4708 0.0210842 0)
(8.45048 0.0588577 0)
(8.41451 0.0850629 0)
(8.3661 0.101157 0)
(8.31336 0.110346 0)
(8.26006 0.114477 0)
(8.20692 0.114545 0)
(8.1543 0.111449 0)
(8.10272 0.105986 0)
(8.05254 0.0987394 0)
(8.00388 0.0900942 0)
(7.95673 0.0803123 0)
(7.91104 0.0695805 0)
(7.86673 0.058041 0)
(7.82372 0.0457983 0)
(7.78196 0.0329321 0)
(7.74101 0.0195021 0)
(7.70289 0.00546766 0)
(7.51217 0.0343791 0)
(7.48449 0.092047 0)
(7.44056 0.129131 0)
(7.38804 0.151588 0)
(7.33517 0.164962 0)
(7.28419 0.171545 0)
(7.23515 0.172821 0)
(7.18819 0.170281 0)
(7.14349 0.165082 0)
(7.10101 0.157974 0)
(7.06056 0.149445 0)
(7.02192 0.139833 0)
(6.98486 0.129377 0)
(6.9492 0.118243 0)
(6.91472 0.106547 0)
(6.8813 0.0943869 0)
(6.84854 0.0818342 0)
(6.81817 0.0689231 0)
(6.48912 0.0509264 0)
(6.45435 0.126839 0)
(6.4067 0.169841 0)
(6.35843 0.194431 0)
(6.31504 0.208387 0)
(6.2762 0.214272 0)
(6.24124 0.214286 0)
(6.20982 0.210461 0)
(6.18146 0.204132 0)
(6.15555 0.196097 0)
(6.13157 0.186878 0)
(6.10907 0.176836 0)
(6.08769 0.166207 0)
(6.06715 0.155143 0)
(6.04718 0.143746 0)
(6.02763 0.132092 0)
(6.00814 0.120235 0)
(5.99013 0.108245 0)
(5.45694 0.070871 0)
(5.41601 0.1586 0)
(5.37223 0.200607 0)
(5.34029 0.222884 0)
(5.31852 0.233885 0)
(5.30317 0.236398 0)
(5.29275 0.23344 0)
(5.28609 0.227302 0)
(5.28189 0.219243 0)
(5.27915 0.209988 0)
(5.27718 0.200008 0)
(5.27548 0.189601 0)
(5.2737 0.178943 0)
(5.27157 0.168134 0)
(5.2689 0.157231 0)
(5.26558 0.146274 0)
(5.26138 0.135293 0)
(5.25744 0.124374 0)
(4.45264 0.0929629 0)
(4.40973 0.181451 0)
(4.38399 0.215573 0)
(4.38422 0.231713 0)
(4.39667 0.237091 0)
(4.4146 0.235017 0)
(4.43616 0.22894 0)
(4.45957 0.220828 0)
(4.48322 0.2116 0)
(4.50618 0.201789 0)
(4.52791 0.191728 0)
(4.54807 0.181607 0)
(4.56647 0.171517 0)
(4.58299 0.1615 0)
(4.59758 0.151566 0)
(4.61028 0.141721 0)
(4.62097 0.131973 0)
(4.63064 0.122413 0)
(3.50274 0.113269 0)
(3.47071 0.188633 0)
(3.48279 0.209964 0)
(3.52918 0.217907 0)
(3.58339 0.21738 0)
(3.6386 0.211838 0)
(3.69385 0.204092 0)
(3.74755 0.195354 0)
(3.79841 0.186162 0)
(3.8459 0.176849 0)
(3.88985 0.167615 0)
(3.93022 0.15855 0)
(3.96703 0.149683 0)
(4.00039 0.141012 0)
(4.03044 0.13252 0)
(4.05734 0.124187 0)
(4.08115 0.116008 0)
(4.10271 0.10808 0)
(2.62968 0.122348 0)
(2.62994 0.173503 0)
(2.69578 0.182538 0)
(2.79319 0.183239 0)
(2.88879 0.179057 0)
(2.97901 0.17253 0)
(3.06483 0.165008 0)
(3.1454 0.157076 0)
(3.22003 0.149073 0)
(3.28869 0.141198 0)
(3.35161 0.133549 0)
(3.40906 0.12616 0)
(3.46132 0.119025 0)
(3.50871 0.112119 0)
(3.55154 0.105413 0)
(3.59013 0.0988758 0)
(3.62465 0.0924921 0)
(3.6559 0.0863756 0)
(1.85175 0.104624 0)
(1.90462 0.132676 0)
(2.02487 0.138335 0)
(2.16727 0.135308 0)
(2.29803 0.130382 0)
(2.41722 0.124995 0)
(2.52794 0.119039 0)
(2.63028 0.112867 0)
(2.72401 0.106785 0)
(2.80954 0.100906 0)
(2.88745 0.0952685 0)
(2.95831 0.089878 0)
(3.02263 0.0847179 0)
(3.08091 0.079759 0)
(3.1336 0.0749704 0)
(3.18115 0.0703237 0)
(3.22386 0.0657899 0)
(3.26247 0.0614923 0)
(1.17552 0.0415081 0)
(1.28124 0.0650615 0)
(1.43404 0.0868662 0)
(1.6066 0.0860724 0)
(1.7634 0.082298 0)
(1.90395 0.0787165 0)
(2.03294 0.0746348 0)
(2.15128 0.0703853 0)
(2.25899 0.0662764 0)
(2.35674 0.0623643 0)
(2.44543 0.0586521 0)
(2.52585 0.055138 0)
(2.59872 0.0518056 0)
(2.66466 0.0486295 0)
(2.72424 0.0455848 0)
(2.778 0.0426517 0)
(2.82633 0.0397788 0)
(2.86993 0.0370852 0)
(0.470027 0.226393 0)
(0.642318 0.0685906 0)
(0.785497 0.0469063 0)
(0.963747 0.0428361 0)
(1.13362 0.04106 0)
(1.2857 0.0395257 0)
(1.42469 0.0373037 0)
(1.55177 0.0348221 0)
(1.66684 0.0324408 0)
(1.7707 0.0302178 0)
(1.86452 0.0281382 0)
(1.94932 0.0261931 0)
(2.02591 0.0243717 0)
(2.09504 0.0226588 0)
(2.15737 0.0210384 0)
(2.21347 0.0195031 0)
(2.26383 0.0180087 0)
(2.30881 0.0166387 0)
(-0.010701 0.00742751 -3.1691e-20)
(-0.0415798 0.0445113 2.99976e-20)
(-0.0979556 0.0670856 0)
(-0.169084 0.0787029 0)
(-0.247229 0.0854663 0)
(-0.330675 0.0904136 -2.54572e-20)
(-0.418221 0.094483 0)
(-0.508998 0.097971 0)
(-0.602343 0.100964 0)
(-0.697695 0.103439 0)
(-0.794507 0.105321 2.19119e-20)
(-0.892178 0.106524 0)
(-0.990183 0.106968 0)
(-1.0879 0.106548 0)
(-1.18465 0.105177 0)
(-1.27972 0.102795 1.95806e-20)
(-1.37237 0.0993592 0)
(-1.46181 0.0948527 0)
(-1.54722 0.08928 0)
(-1.62778 0.0826676 0)
(-1.70267 0.0750598 0)
(-1.77107 0.0665183 0)
(-1.83219 0.0571352 0)
(-1.88528 0.04705 1.65158e-20)
(-1.92963 0.036448 -1.60689e-20)
(-1.96463 0.0255231 1.55891e-20)
(-1.98966 0.0145395 1.50717e-20)
(-2.00417 0.00368125 0)
(-2.00805 -0.00687793 0)
(-2.00265 -0.0168051 -1.31623e-20)
(-1.98765 -0.0263311 -1.24024e-20)
(-1.96311 -0.0355839 0)
(-1.92917 -0.044593 0)
(-1.88599 -0.053343 -9.74138e-21)
(-1.83377 -0.0617979 0)
(-1.77276 -0.0699131 0)
(-1.70326 -0.0776412 6.46866e-21)
(-1.62563 -0.0849352 0)
(-1.54029 -0.0917492 3.93147e-21)
(-1.44769 -0.0980391 5.1084e-21)
(-1.34833 -0.103764 0)
(-1.24277 -0.108885 0)
(-1.13156 -0.113365 0)
(-1.01533 -0.117161 0)
(-0.894707 -0.120229 0)
(-0.770348 -0.122528 -1.45165e-20)
(-0.642916 -0.124021 -1.83119e-20)
(-0.513086 -0.124666 -2.226e-20)
(-0.381535 -0.124414 0)
(-0.248896 -0.123218 3.06176e-20)
(-0.115664 -0.121093 0)
(0.0177996 -0.118259 -3.5714e-20)
(0.151024 -0.114986 -3.69751e-20)
(0.283365 -0.1114 0)
(0.414238 -0.107559 0)
(0.543143 -0.103509 0)
(0.669626 -0.0992932 -3.991e-20)
(0.793281 -0.0949495 0)
(0.913741 -0.0905153 0)
(1.03069 -0.0860263 0)
(1.14385 -0.0815165 0)
(1.25299 -0.077018 0)
(1.35792 -0.0725605 0)
(1.45851 -0.0681711 0)
(1.55464 -0.063874 0)
(1.64626 -0.0596906 3.96069e-20)
(1.73333 -0.0556391 0)
(1.81588 -0.0517347 0)
(1.89393 -0.0479896 -3.86012e-20)
(1.96755 -0.0444132 -3.82311e-20)
(2.03683 -0.0410123 0)
(2.1019 -0.0377912 3.74653e-20)
(2.16286 -0.034752 -3.70765e-20)
(2.21988 -0.0318947 0)
(2.27311 -0.0292179 3.63001e-20)
(2.32271 -0.0267182 0)
(2.36885 -0.0243914 0)
(2.4117 -0.022232 -3.51667e-20)
(2.45145 -0.0202335 0)
(2.48827 -0.018389 3.44464e-20)
(2.52233 -0.016691 0)
(2.55381 -0.0151316 -3.3761e-20)
(2.58286 -0.0137028 -3.34323e-20)
(2.60966 -0.0123965 -3.31131e-20)
(2.63435 -0.0112045 -6.56067e-20)
(2.65709 -0.0101189 6.50063e-20)
(2.67801 -0.00913183 0)
(2.69724 -0.00823579 0)
(2.71492 -0.00742349 0)
(2.73117 -0.006688 6.27872e-20)
(2.74608 -0.00602274 6.22756e-20)
(2.75977 -0.00542154 -6.17802e-20)
(2.77233 -0.00487869 0)
(2.78385 -0.00438892 6.08356e-20)
(2.79442 -0.00394741 6.03854e-20)
(2.80412 -0.00354969 5.99493e-20)
(2.813 -0.00319161 0)
(2.82115 -0.00286935 0)
(2.82861 -0.00257935 0)
(2.83545 -0.00231837 5.83338e-20)
(2.84172 -0.00208336 0)
(2.84747 -0.00187157 0)
(2.85273 -0.00168054 -5.72416e-20)
(2.85754 -0.00150706 0)
(2.86194 -0.00134628 0)
(2.86595 -0.00119897 -5.62359e-20)
(2.8696 -0.00105337 0)
(2.87292 -0.00084292 0)
(2.87571 -0.00057332 5.53041e-20)
(2.87798 -0.000283705 5.50082e-20)
(2.87981 -2.65729e-05 0)
(2.88127 0.000173694 -5.4439e-20)
(2.88244 0.000310844 0)
(2.88339 0.000392146 5.38945e-20)
(2.88416 0.000430233 0)
(2.8848 0.000438149 5.33699e-20)
(2.88533 0.000427223 5.31139e-20)
(2.88578 0.000406091 0)
(2.88615 0.000380622 0)
(2.88645 0.000354386 0)
(2.8867 0.000329286 0)
(2.88689 0.000306153 0)
(2.88704 0.000285203 0)
(2.88714 0.00026636 0)
(2.88721 0.000249432 5.11826e-20)
(2.88724 0.00023421 -5.0953e-20)
(2.88724 0.000220505 0)
(2.8872 0.000208154 0)
(2.88715 0.000197012 0)
(2.88706 0.000186948 0)
(2.88695 0.000177835 -9.96693e-20)
(2.88682 0.000169544 0)
(2.88667 0.000161947 9.87986e-20)
(2.8865 0.000154922 -9.83678e-20)
(2.88632 0.000148358 0)
(2.88612 0.000142164 0)
(2.8859 0.000136281 0)
(2.88568 0.000130681 9.66712e-20)
(2.88544 0.000125371 9.62532e-20)
(2.88518 0.000120386 0)
(2.88492 0.000115782 9.54237e-20)
(2.88465 0.000111628 9.50122e-20)
(2.88437 0.000108 -9.46026e-20)
(2.88407 0.000104966 0)
(2.88377 0.00010259 0)
(2.88346 0.00010093 -9.33853e-20)
(2.88314 0.00010004 0)
(2.88281 9.99748e-05 0)
(2.88246 0.000100785 0)
(2.8821 0.000102519 0)
(2.88173 0.000105226 9.13926e-20)
(2.88134 0.000108969 9.09995e-20)
(2.88093 0.000113829 0)
(2.8805 0.000119926 9.02189e-20)
(2.88004 0.000127436 0)
(2.87955 0.000136624 0)
(2.87902 0.000147868 8.90639e-20)
(2.87846 0.000161683 0)
(2.87783 0.00017876 8.83063e-20)
(2.87714 0.000200005 0)
(2.87638 0.000226594 0)
(2.87551 0.000260041 8.71952e-20)
(2.87452 0.000302306 0)
(2.87338 0.000355942 8.64782e-20)
(2.87203 0.000424308 0)
(2.87044 0.000511879 0)
(2.86852 0.000624698 0)
(2.86618 0.000771074 -8.51443e-20)
(2.86328 0.000962657 0)
(2.85966 0.00121616 8.45677e-20)
(2.85505 0.00155628 0)
(2.84912 0.00202073 0)
(2.84133 0.00266955 0)
(2.83089 0.00360276 0)
(2.81658 0.00500018 0)
(2.79616 0.00717311 0)
(2.7666 0.0109051 0)
(2.7182 0.0168917 -1.70146e-19)
(2.65146 0.0315144 0)
(2.47826 0.0449564 0)
(-0.0487919 0.118756 8.86424e-20)
(-0.123157 0.187837 -7.63204e-20)
(-0.212212 0.230759 0)
(-0.311483 0.257413 4.17492e-20)
(-0.415214 0.273814 0)
(-0.521332 0.28421 1.87883e-20)
(-0.628622 0.290719 -3.61139e-20)
(-0.735931 0.294374 -3.49293e-20)
(-0.84225 0.295736 0)
(-0.946753 0.295135 -3.31009e-20)
(-1.04876 0.292764 -1.61366e-20)
(-1.14772 0.288733 0)
(-1.24316 0.283093 0)
(-1.33468 0.275846 0)
(-1.42191 0.266982 0)
(-1.50452 0.256491 -1.47227e-20)
(-1.58221 0.244367 0)
(-1.65465 0.230619 2.87959e-20)
(-1.72155 0.215273 0)
(-1.78262 0.198376 0)
(-1.83757 0.179993 -2.73508e-20)
(-1.88616 0.160217 0)
(-1.92814 0.139166 2.6216e-20)
(-1.96333 0.116995 -1.25356e-20)
(-1.99156 0.0938959 1.21707e-20)
(-2.0127 0.0700944 -1.17743e-20)
(-2.02673 0.0458652 -1.1344e-20)
(-2.03367 0.021476 0)
(-2.03318 -0.00286025 0)
(-2.0238 -0.0268547 9.73934e-21)
(-2.00547 -0.0504224 -9.75376e-21)
(-1.97804 -0.0734899 0)
(-1.94147 -0.0959537 0)
(-1.89581 -0.117693 7.00392e-21)
(-1.84122 -0.13858 0)
(-1.77793 -0.158493 0)
(-1.70626 -0.177318 -4.54308e-21)
(-1.62655 -0.194954 0)
(-1.53921 -0.211313 3.50187e-21)
(-1.44469 -0.226321 -3.5025e-21)
(-1.34348 -0.23992 0)
(-1.2361 -0.252064 0)
(-1.12308 -0.262718 3.75456e-21)
(-1.005 -0.271859 8.14934e-21)
(-0.882419 -0.279472 1.26839e-20)
(-0.755929 -0.285552 -7.84829e-21)
(-0.626119 -0.290094 1.19231e-20)
(-0.493572 -0.293094 4.15745e-20)
(-0.358871 -0.294548 -3.23081e-20)
(-0.222591 -0.29446 -1.95823e-20)
(-0.0853364 -0.29285 0)
(0.0521515 -0.289803 2.31945e-20)
(0.189335 -0.285548 -2.31582e-20)
(0.325708 -0.280226 0)
(0.460803 -0.273956 0)
(0.594155 -0.26685 0)
(0.725331 -0.259011 2.86517e-20)
(0.853932 -0.250543 0)
(0.979599 -0.241548 -5.91395e-20)
(1.10201 -0.232124 0)
(1.22089 -0.22237 -6.1269e-20)
(1.33599 -0.212377 0)
(1.44711 -0.202237 6.27341e-20)
(1.5541 -0.192031 0)
(1.65684 -0.181839 -6.36352e-20)
(1.75523 -0.171731 3.17016e-20)
(1.84924 -0.161771 0)
(1.93883 -0.152015 6.41366e-20)
(2.02402 -0.142513 3.22503e-20)
(2.10485 -0.133305 3.21883e-20)
(2.18138 -0.124427 0)
(2.2537 -0.115905 3.1689e-20)
(2.32191 -0.107759 3.1833e-20)
(2.38613 -0.100005 0)
(2.4465 -0.09265 -3.14937e-20)
(2.50315 -0.0856992 6.24083e-20)
(2.55624 -0.0791516 0)
(2.60592 -0.0730029 3.08937e-20)
(2.65235 -0.0672453 0)
(2.69569 -0.0618685 -9.12443e-20)
(2.73611 -0.0568599 0)
(2.77376 -0.0522052 8.99389e-20)
(2.80881 -0.0478888 2.97969e-20)
(2.84139 -0.0438942 -2.94781e-20)
(2.87167 -0.0402043 -5.85348e-20)
(2.89979 -0.0368015 5.81172e-20)
(2.92588 -0.0336685 0)
(2.95008 -0.0307879 0)
(2.97252 -0.0281425 0)
(2.9933 -0.0257157 -1.69753e-19)
(3.01255 -0.0234917 -5.62296e-20)
(3.03037 -0.0214552 5.58432e-20)
(3.04687 -0.0195919 0)
(3.06213 -0.0178884 5.50096e-20)
(3.07625 -0.016332 -5.4737e-20)
(3.08931 -0.0149108 -5.43859e-20)
(3.10139 -0.0136137 0)
(3.11255 -0.0124301 0)
(3.12287 -0.0113504 0)
(3.1324 -0.0103654 -5.30679e-20)
(3.14121 -0.0094665 0)
(3.14935 -0.00864594 1.04869e-19)
(3.15687 -0.00789621 1.56447e-19)
(3.16381 -0.00720979 -1.03713e-19)
(3.17022 -0.00657795 0)
(3.17614 -0.00599368 -5.12884e-20)
(3.1816 -0.00544289 0)
(3.18665 -0.00488655 -1.01556e-19)
(3.1915 -0.00433468 5.05048e-20)
(3.19617 -0.00381647 5.02526e-20)
(3.20062 -0.0033483 0)
(3.20482 -0.00293913 1.4931e-19)
(3.20874 -0.00259105 -9.90463e-20)
(3.21236 -0.00229578 -4.92941e-20)
(3.21569 -0.00204362 0)
(3.21872 -0.00182634 -4.88284e-20)
(3.22148 -0.00163719 -1.45791e-19)
(3.22399 -0.00147102 0)
(3.22626 -0.00132404 -9.63066e-20)
(3.22831 -0.00119344 -9.5875e-20)
(3.23018 -0.00107708 -9.54493e-20)
(3.23187 -0.000973261 0)
(3.23339 -0.000880531 0)
(3.23477 -0.000797633 0)
(3.23602 -0.000723445 4.68955e-20)
(3.23715 -0.000656964 4.67015e-20)
(3.23817 -0.0005973 0)
(3.23909 -0.000543664 9.26046e-20)
(3.23992 -0.000495364 9.22138e-20)
(3.24067 -0.000451798 0)
(3.24134 -0.000412445 9.14462e-20)
(3.24194 -0.000376856 1.8212e-19)
(3.24247 -0.00034464 -9.06846e-20)
(3.24295 -0.000315462 -9.03002e-20)
(3.24337 -0.000289028 0)
(3.24375 -0.000265084 0)
(3.24408 -0.000243406 0)
(3.24436 -0.000223795 -8.88223e-20)
(3.24461 -0.000206073 8.84504e-20)
(3.24482 -0.000190069 1.76178e-19)
(3.245 -0.000175618 -8.77286e-20)
(3.24514 -0.000162546 8.73626e-20)
(3.24526 -0.000150667 8.70077e-20)
(3.24536 -0.000139778 0)
(3.24543 -0.000129662 0)
(3.24548 -0.000120081 -8.59333e-20)
(3.24552 -0.000110785 0)
(3.24554 -0.000101506 0)
(3.24554 -9.19659e-05 1.69754e-19)
(3.24552 -8.18705e-05 0)
(3.2455 -7.09043e-05 8.41761e-20)
(3.24546 -5.87165e-05 -8.38321e-20)
(3.2454 -4.49081e-05 0)
(3.24534 -2.90135e-05 8.31372e-20)
(3.24525 -1.04763e-05 0)
(3.24514 1.13857e-05 0)
(3.24502 3.74184e-05 -8.21151e-20)
(3.24487 6.8687e-05 1.6355e-19)
(3.24469 0.000106547 -8.14405e-20)
(3.24447 0.000152743 0)
(3.24421 0.000209533 0)
(3.2439 0.000279853 8.04425e-20)
(3.24352 0.000367536 0)
(3.24306 0.000477612 7.97974e-20)
(3.24251 0.000616731 0)
(3.24183 0.000793755 0)
(3.24098 0.00102063 0)
(3.23994 0.00131372 7.85928e-20)
(3.23863 0.00169579 0)
(3.23697 0.00219926 -7.80572e-20)
(3.23486 0.00287159 0)
(3.23215 0.00378426 0)
(3.22865 0.00505017 1.54834e-19)
(3.22406 0.00685176 -1.54574e-19)
(3.21803 0.00951828 0)
(3.20982 0.0135893 0)
(3.1993 0.020414 0)
(3.18293 0.0313682 4.66476e-19)
(3.16704 0.0555649 0)
(3.13044 0.0878461 -3.15156e-19)
(-0.0624139 0.311309 1.37446e-22)
(-0.150881 0.392632 9.0823e-20)
(-0.245847 0.440123 0)
(-0.346717 0.471013 -6.95571e-20)
(-0.449435 0.490003 0)
(-0.552158 0.500502 0)
(-0.654354 0.504788 -3.95903e-22)
(-0.755459 0.504295 2.82191e-20)
(-0.854929 0.499994 2.78466e-20)
(-0.952337 0.49258 2.67878e-20)
(-1.04737 0.482547 0)
(-1.13982 0.470237 0)
(-1.2295 0.455859 -2.58316e-20)
(-1.31626 0.439525 -5.09428e-20)
(-1.39993 0.421275 5.02729e-20)
(-1.48032 0.40111 0)
(-1.55717 0.379013 4.90024e-20)
(-1.63016 0.354967 -2.36305e-20)
(-1.6989 0.328973 0)
(-1.76298 0.301062 4.7013e-20)
(-1.8219 0.271299 2.25152e-20)
(-1.87517 0.239791 -4.54527e-20)
(-1.92223 0.20668 -2.16206e-20)
(-1.96257 0.172147 0)
(-1.99565 0.136394 4.24837e-20)
(-2.02094 0.0996449 4.1277e-20)
(-2.03797 0.062116 0)
(-2.04633 0.0240658 3.8427e-20)
(-2.04564 -0.0142406 0)
(-2.03565 -0.0526291 3.4645e-20)
(-2.01628 -0.0907512 1.55231e-20)
(-1.9875 -0.128253 0)
(-1.94938 -0.164823 0)
(-1.90204 -0.200185 0)
(-1.84568 -0.234091 0)
(-1.78058 -0.266321 0)
(-1.70705 -0.296681 0)
(-1.62549 -0.325006 1.44408e-20)
(-1.53632 -0.351158 -1.64104e-20)
(-1.44001 -0.375025 0)
(-1.33706 -0.396522 0)
(-1.228 -0.415589 0)
(-1.11338 -0.432189 -1.29734e-21)
(-0.993773 -0.446305 -6.44386e-21)
(-0.869751 -0.457944 -1.87242e-20)
(-0.741901 -0.467133 2.59948e-20)
(-0.610811 -0.473918 1.61086e-20)
(-0.477064 -0.478365 -2.11004e-20)
(-0.341247 -0.480558 1.16548e-21)
(-0.203943 -0.480613 -2.76496e-20)
(-0.065735 -0.478635 0)
(0.0727121 -0.474678 -3.35627e-20)
(0.210849 -0.468861 9.6184e-22)
(0.348159 -0.461305 0)
(0.48416 -0.452161 0)
(0.618392 -0.441585 4.22385e-20)
(0.750429 -0.42974 0)
(0.879884 -0.416787 0)
(1.0064 -0.402889 -4.63178e-20)
(1.12968 -0.388209 -9.64599e-20)
(1.24944 -0.372902 4.99196e-20)
(1.36545 -0.357122 0)
(1.47753 -0.341014 -5.17316e-20)
(1.58551 -0.324717 0)
(1.68929 -0.308359 -5.22606e-20)
(1.78878 -0.292058 -5.36192e-20)
(1.88393 -0.275923 1.07392e-19)
(1.97473 -0.260049 5.37386e-20)
(2.06118 -0.244523 0)
(2.14333 -0.229417 -1.09176e-19)
(2.22124 -0.214793 0)
(2.29498 -0.200701 -1.64749e-19)
(2.36466 -0.187181 -1.0974e-19)
(2.43038 -0.174262 -1.09713e-19)
(2.49228 -0.161964 1.09598e-19)
(2.5505 -0.1503 -1.64294e-19)
(2.60517 -0.139274 0)
(2.65645 -0.128882 0)
(2.70449 -0.119117 1.08452e-19)
(2.74945 -0.109965 1.62198e-19)
(2.79148 -0.101409 0)
(2.83073 -0.0934299 -5.36767e-20)
(2.86737 -0.0860035 0)
(2.90153 -0.0791056 1.5923e-19)
(2.93336 -0.07271 1.99163e-22)
(2.96301 -0.06679 -1.85747e-22)
(2.99059 -0.0613185 -1.04443e-19)
(3.01625 -0.0562684 0)
(3.04011 -0.0516127 1.03323e-19)
(3.06228 -0.0473253 1.40283e-22)
(3.08287 -0.0433808 0)
(3.102 -0.039755 0)
(3.11975 -0.0364247 0)
(3.13622 -0.0333683 -1.00657e-19)
(3.1515 -0.0305649 0)
(3.16567 -0.0279951 0)
(3.17882 -0.0256403 0)
(3.191 -0.0234833 0)
(3.20229 -0.0215078 0)
(3.21275 -0.0196987 -9.74412e-20)
(3.22244 -0.0180419 0)
(3.23141 -0.0165242 -9.65316e-20)
(3.23972 -0.0151334 -9.60564e-20)
(3.24741 -0.0138575 9.55899e-20)
(3.25452 -0.0126858 0)
(3.26111 -0.0116067 9.46824e-20)
(3.2672 -0.0106126 0)
(3.27283 -0.00970992 9.38062e-20)
(3.27805 -0.00888487 -9.33803e-20)
(3.28291 -0.00812341 -2.78826e-19)
(3.28745 -0.00740668 0)
(3.2917 -0.00674178 -2.76323e-19)
(3.29567 -0.00612531 -9.16642e-20)
(3.29936 -0.00555648 0)
(3.30279 -0.00503609 -1.81773e-19)
(3.30597 -0.00456295 -1.80989e-19)
(3.3089 -0.00413452 2.70342e-19)
(3.3116 -0.0037476 0)
(3.31408 -0.0033987 8.93647e-20)
(3.31635 -0.00308428 8.89913e-20)
(3.31843 -0.00280098 2.65842e-19)
(3.32033 -0.00254569 0)
(3.32207 -0.00231559 0)
(3.32365 -0.00210812 0)
(3.32509 -0.00192097 8.71646e-20)
(3.3264 -0.00175208 0)
(3.32759 -0.00159958 0)
(3.32868 -0.0014618 -8.61318e-20)
(3.32966 -0.00133724 -8.57868e-20)
(3.33055 -0.00122454 0)
(3.33136 -0.0011225 0)
(3.33209 -0.00103003 -1.69528e-19)
(3.33275 -0.000946169 0)
(3.33334 -0.000870057 1.68182e-19)
(3.33388 -0.000800938 1.67507e-19)
(3.33436 -0.000738148 0)
(3.33479 -0.000681112 0)
(3.33517 -0.000629336 -1.6552e-19)
(3.33552 -0.000582388 -4.69009e-24)
(3.33582 -0.000539889 -4.29819e-24)
(3.33609 -0.000501489 0)
(3.33633 -0.000466849 -3.25807e-19)
(3.33653 -0.000435624 0)
(3.33671 -0.000407448 0)
(3.33687 -0.000381929 0)
(3.337 -0.000358646 1.60316e-19)
(3.33712 -0.000337148 0)
(3.33721 -0.000316954 -3.18059e-19)
(3.33729 -0.000297556 -1.58392e-19)
(3.33736 -0.000278408 0)
(3.33741 -0.000258925 -1.57116e-19)
(3.33744 -0.000238473 0)
(3.33746 -0.000216349 0)
(3.33747 -0.000191763 -4.65644e-19)
(3.33746 -0.000163815 3.09169e-19)
(3.33743 -0.000131456 0)
(3.33738 -9.3433e-05 3.06664e-19)
(3.33731 -4.82148e-05 -1.52713e-19)
(3.33721 6.10857e-06 0)
(3.33707 7.19622e-05 0)
(3.33689 0.000152464 0)
(3.33665 0.00025166 -4.50783e-19)
(3.33635 0.000374826 0)
(3.33596 0.00052888 -1.49074e-19)
(3.33546 0.000722945 0)
(3.33482 0.000969141 0)
(3.33401 0.00128373 0)
(3.33297 0.00168879 0)
(3.33164 0.00221481 0)
(3.32993 0.00290468 0)
(3.32771 0.00382027 -2.90748e-19)
(3.32483 0.00505302 0)
(3.32106 0.00674422 -1.4469e-19)
(3.31608 0.00911505 4.33252e-19)
(3.30949 0.012552 0)
(3.30059 0.0176651 0)
(3.28889 0.0258561 -2.88988e-19)
(3.27263 0.0388688 -2.9074e-19)
(3.25406 0.0638275 2.91272e-19)
(3.23279 0.10464 2.95038e-19)
(-0.0637221 0.521609 -1.59408e-19)
(-0.155309 0.608806 -1.26956e-19)
(-0.250761 0.653533 -7.04346e-20)
(-0.349838 0.681905 -3.18106e-20)
(-0.449648 0.698513 0)
(-0.548486 0.706025 5.44063e-20)
(-0.646332 0.706528 -2.66946e-20)
(-0.743179 0.701573 0)
(-0.838931 0.692327 -2.40035e-20)
(-0.933495 0.679663 0)
(-1.02679 0.664203 4.75318e-20)
(-1.11873 0.646349 0)
(-1.20918 0.626304 2.25449e-20)
(-1.29795 0.604115 4.46206e-20)
(-1.38475 0.579711 -4.41914e-20)
(-1.46922 0.552954 0)
(-1.55089 0.523676 -4.33748e-20)
(-1.62919 0.491719 0)
(-1.70349 0.45696 0)
(-1.77311 0.419335 -4.20183e-20)
(-1.83733 0.378853 0)
(-1.89543 0.3356 -1.83251e-21)
(-1.94669 0.289742 0)
(-1.99045 0.241518 0)
(-2.02611 0.191237 1.94647e-21)
(-2.05312 0.139261 -3.74677e-20)
(-2.07103 0.0859942 -3.83052e-20)
(-2.07951 0.0318642 -3.49711e-20)
(-2.0783 -0.0226764 0)
(-2.06728 -0.07719 -6.49227e-20)
(-2.0464 -0.131206 0)
(-2.0157 -0.184269 -2.93855e-20)
(-1.97531 -0.235955 0)
(-1.92542 -0.285873 0)
(-1.86629 -0.333675 2.24237e-20)
(-1.79827 -0.379054 0)
(-1.72173 -0.421741 -1.72472e-20)
(-1.63709 -0.461512 1.50051e-21)
(-1.54483 -0.49818 2.19637e-20)
(-1.44546 -0.531599 -1.76072e-20)
(-1.33949 -0.561656 0)
(-1.22749 -0.588273 0)
(-1.11003 -0.611406 -8.75385e-22)
(-0.987684 -0.631038 0)
(-0.861052 -0.647182 7.78061e-21)
(-0.730732 -0.659878 -1.10045e-20)
(-0.597326 -0.669194 -1.42828e-20)
(-0.461436 -0.675226 0)
(-0.323664 -0.678099 2.09962e-20)
(-0.18459 -0.677963 2.42689e-20)
(-0.0447938 -0.674943 -5.25774e-20)
(0.0951116 -0.66914 2.9418e-20)
(0.234576 -0.660742 3.16095e-20)
(0.373064 -0.649936 0)
(0.510082 -0.636935 0)
(0.645168 -0.621961 -3.72404e-20)
(0.777901 -0.605239 0)
(0.907896 -0.586999 0)
(1.03481 -0.567467 8.31523e-20)
(1.15835 -0.546869 8.55266e-20)
(1.27825 -0.525423 0)
(1.3943 -0.50334 0)
(1.50632 -0.480821 0)
(1.61417 -0.458056 0)
(1.71776 -0.43522 9.41208e-20)
(1.81703 -0.412474 -9.47629e-20)