/*--------------------------------*- C++ -*----------------------------------*\
| =========                 |                                                 |
| \\      /  F ield         | OpenFOAM: The Open Source CFD Toolbox           |
|  \\    /   O peration     | Version:  2412                                  |
|   \\  /    A nd           | Website:  www.openfoam.com                      |
|    \\/     M anipulation  |                                                 |
\*---------------------------------------------------------------------------*/
FoamFile
{
    version     2.0;
    format      ascii;
    arch        "LSB;label=32;scalar=64";
    class       volVectorField;
    location    "0.4";
    object      U_0_0_0;
}
// * * * * * * * * * * * * * * * * * * * * * * * * * * * * * * * * * * * * * //

dimensions      [0 1 -1 0 0 0 0];

internalField   nonuniform List<vector> 
800
(
(0.00174425 0 0)
(0.00523279 0 0)
(0.0087213 0 0)
(0.0122098 0 0)
(0.0156982 0 0)
(0.0191865 0 0)
(0.0226747 0 0)
(0.0261628 0 0)
(0.0296507 0 0)
(0.0331385 0 0)
(0.0366261 0 0)
(0.0401135 0 0)
(0.0436007 0 0)
(0.0470876 0 0)
(0.0505743 0 0)
(0.0540607 0 0)
(0.0575468 0 0)
(0.0610326 0 0)
(0.064518 0 0)
(0.0680031 0 0)
(0.0714879 0 0)
(0.0749722 0 0)
(0.0784561 0 0)
(0.0819396 0 0)
(0.0854227 0 0)
(0.0889053 0 0)
(0.0923873 0 0)
(0.0958689 0 0)
(0.09935 0 0)
(0.10283 0 0)
(0.10631 0 0)
(0.10979 0 0)
(0.113268 0 0)
(0.116747 0 0)
(0.120224 0 0)
(0.123701 0 0)
(0.127177 0 0)
(0.130652 0 0)
(0.134127 0 0)
(0.137601 0 0)
(0.141074 0 0)
(0.144547 0 0)
(0.148018 0 0)
(0.151489 0 0)
(0.154959 0 0)
(0.158428 0 0)
(0.161896 0 0)
(0.165363 0 0)
(0.16883 0 0)
(0.172295 0 0)
(0.17576 0 0)
(0.179223 0 0)
(0.182686 0 0)
(0.186147 0 0)
(0.189607 0 0)
(0.193067 0 0)
(0.196525 0 0)
(0.199982 0 0)
(0.203438 0 0)
(0.206893 0 0)
(0.210346 0 0)
(0.213799 0 0)
(0.21725 0 0)
(0.2207 0 0)
(0.224149 0 0)
(0.227596 0 0)
(0.231043 0 0)
(0.234487 0 0)
(0.237931 0 0)
(0.241373 0 0)
(0.244814 0 0)
(0.248253 0 0)
(0.251691 0 0)
(0.255128 0 0)
(0.258563 0 0)
(0.261996 0 0)
(0.265428 0 0)
(0.268859 0 0)
(0.272288 0 0)
(0.275715 0 0)
(0.279141 0 0)
(0.282565 0 0)
(0.285987 0 0)
(0.289408 0 0)
(0.292827 0 0)
(0.296244 0 0)
(0.29966 0 0)
(0.303073 0 0)
(0.306485 0 0)
(0.309896 0 0)
(0.313304 0 0)
(0.31671 0 0)
(0.320115 0 0)
(0.323518 0 0)
(0.326919 0 0)
(0.330317 0 0)
(0.333714 0 0)
(0.337109 0 0)
(0.340502 0 0)
(0.343892 0 0)
(0.347281 0 0)
(0.350668 0 0)
(0.354052 0 0)
(0.357434 0 0)
(0.360814 0 0)
(0.364192 0 0)
(0.367568 0 0)
(0.370941 0 0)
(0.374312 0 0)
(0.377681 0 0)
(0.381047 0 0)
(0.384411 0 0)
(0.387773 0 0)
(0.391132 0 0)
(0.394489 0 0)
(0.397843 0 0)
(0.401195 0 0)
(0.404545 0 0)
(0.407891 0 0)
(0.411235 0 0)
(0.414577 0 0)
(0.417916 0 0)
(0.421252 0 0)
(0.424586 0 0)
(0.427916 0 0)
(0.431245 0 0)
(0.43457 0 0)
(0.437892 0 0)
(0.441212 0 0)
(0.444529 0 0)
(0.447842 0 0)
(0.451153 0 0)
(0.454461 0 0)
(0.457766 0 0)
(0.461068 0 0)
(0.464367 0 0)
(0.467663 0 0)
(0.470956 0 0)
(0.474245 0 0)
(0.477532 0 0)
(0.480815 0 0)
(0.484095 0 0)
(0.487371 0 0)
(0.490645 0 0)
(0.493915 0 0)
(0.497181 0 0)
(0.500444 0 0)
(0.503704 0 0)
(0.50696 0 0)
(0.510213 0 0)
(0.513462 0 0)
(0.516708 0 0)
(0.51995 0 0)
(0.523188 0 0)
(0.526423 0 0)
(0.529654 0 0)
(0.532881 0 0)
(0.536104 0 0)
(0.539324 0 0)
(0.54254 0 0)
(0.545751 0 0)
(0.548959 0 0)
(0.552163 0 0)
(0.555363 0 0)
(0.558558 0 0)
(0.56175 0 0)
(0.564937 0 0)
(0.568121 0 0)
(0.5713 0 0)
(0.574475 0 0)
(0.577645 0 0)
(0.580811 0 0)
(0.583973 0 0)
(0.58713 0 0)
(0.590283 0 0)
(0.593431 0 0)
(0.596575 0 0)
(0.599714 0 0)
(0.602849 0 0)
(0.605978 0 0)
(0.609103 0 0)
(0.612223 0 0)
(0.615339 0 0)
(0.618449 0 0)
(0.621555 0 0)
(0.624656 0 0)
(0.627751 0 0)
(0.630842 0 0)
(0.633927 0 0)
(0.637007 0 0)
(0.640082 0 0)
(0.643152 0 0)
(0.646216 0 0)
(0.649275 0 0)
(0.652329 0 0)
(0.655377 0 0)
(0.658419 0 0)
(0.661456 0 0)
(0.664487 0 0)
(0.667513 0 0)
(0.670533 0 0)
(0.673547 0 0)
(0.676555 0 0)
(0.679557 0 0)
(0.682553 0 0)
(0.685543 0 0)
(0.688527 0 0)
(0.691505 0 0)
(0.694477 0 0)
(0.697442 0 0)
(0.700401 0 0)
(0.703353 0 0)
(0.706299 0 0)
(0.709239 0 0)
(0.712172 0 0)
(0.715098 0 0)
(0.718017 0 0)
(0.72093 0 0)
(0.723836 0 0)
(0.726734 0 0)
(0.729626 0 0)
(0.732511 0 0)
(0.735388 0 0)
(0.738258 0 0)
(0.741121 0 0)
(0.743976 0 0)
(0.746824 0 0)
(0.749665 0 0)
(0.752498 0 0)
(0.755323 0 0)
(0.75814 0 0)
(0.760949 0 0)
(0.763751 0 0)
(0.766544 0 0)
(0.769329 0 0)
(0.772106 0 0)
(0.774875 0 0)
(0.777635 0 0)
(0.780387 0 0)
(0.78313 0 0)
(0.785864 0 0)
(0.78859 0 0)
(0.791307 0 0)
(0.794015 0 0)
(0.796714 0 0)
(0.799403 0 0)
(0.802084 0 0)
(0.804755 0 0)
(0.807416 0 0)
(0.810068 0 0)
(0.81271 0 0)
(0.815343 0 0)
(0.817965 0 0)
(0.820578 0 0)
(0.82318 0 0)
(0.825772 0 0)
(0.828354 0 0)
(0.830925 0 0)
(0.833486 0 0)
(0.836036 0 0)
(0.838575 0 0)
(0.841103 0 0)
(0.843619 0 0)
(0.846125 0 0)
(0.848619 0 0)
(0.851102 0 0)
(0.853573 0 0)
(0.856032 0 0)
(0.858479 0 0)
(0.860914 0 0)
(0.863336 0 0)
(0.865747 0 0)
(0.868144 0 0)
(0.870529 0 0)
(0.872901 0 0)
(0.87526 0 0)
(0.877606 0 0)
(0.879938 0 0)
(0.882257 0 0)
(0.884562 0 0)
(0.886852 0 0)
(0.889129 0 0)
(0.891392 0 0)
(0.89364 0 0)
(0.895873 0 0)
(0.898091 0 0)
(0.900294 0 0)
(0.902482 0 0)
(0.904655 0 0)
(0.906811 0 0)
(0.908952 0 0)
(0.911076 0 0)
(0.913184 0 0)
(0.915276 0 0)
(0.91735 0 0)
(0.919407 0 0)
(0.921447 0 0)
(0.923469 0 0)
(0.925473 0 0)
(0.927459 0 0)
(0.929426 0 0)
(0.931375 0 0)
(0.933305 0 0)
(0.935215 0 0)
(0.937106 0 0)
(0.938976 0 0)
(0.940827 0 0)
(0.942656 0 0)
(0.944465 0 0)
(0.946253 0 0)
(0.948018 0 0)
(0.949762 0 0)
(0.951484 0 0)
(0.953183 0 0)
(0.954858 0 0)
(0.95651 0 0)
(0.958138 0 0)
(0.959742 0 0)
(0.961321 0 0)
(0.962875 0 0)
(0.964403 0 0)
(0.965905 0 0)
(0.96738 0 0)
(0.968828 0 0)
(0.970249 0 0)
(0.971641 0 0)
(0.973005 0 0)
(0.974339 0 0)
(0.975644 0 0)
(0.976918 0 0)
(0.978161 0 0)
(0.979372 0 0)
(0.980551 0 0)
(0.981697 0 0)
(0.982809 0 0)
(0.983886 0 0)
(0.984929 0 0)
(0.985936 0 0)
(0.986906 0 0)
(0.987838 0 0)
(0.988732 0 0)
(0.989586 0 0)
(0.990401 0 0)
(0.991174 0 0)
(0.991905 0 0)
(0.992593 0 0)
(0.993237 0 0)
(0.993835 0 0)
(0.994387 0 0)
(0.994891 0 0)
(0.995346 0 0)
(0.995751 0 0)
(0.996104 0 0)
(0.996404 0 0)
(0.99665 0 0)
(0.996839 0 0)
(0.996971 0 0)
(0.997043 0 0)
(0.997054 0 0)
(0.997003 0 0)
(0.996886 0 0)
(0.996702 0 0)
(0.996449 0 0)
(0.996124 0 0)
(0.995725 0 0)
(0.99525 0 0)
(0.994696 0 0)
(0.994059 0 0)
(0.993338 0 0)
(0.992528 0 0)
(0.991627 0 0)
(0.99063 0 0)
(0.989535 0 0)
(0.988336 0 0)
(0.987029 0 0)
(0.985611 0 0)
(0.984075 0 0)
(0.982416 0 0)
(0.980628 0 0)
(0.978706 0 0)
(0.976641 0 0)
(0.974428 0 0)
(0.972057 0 0)
(0.969519 0 0)
(0.966806 0 0)
(0.963906 0 0)
(0.960808 0 0)
(0.957498 0 0)
(0.953962 0 0)
(0.950183 0 0)
(0.946144 0 0)
(0.941822 0 0)
(0.937195 0 0)
(0.932235 0 0)
(0.926909 0 0)
(0.921184 0 0)
(0.914966 0 0)
(0.908786 0 0)
(0.89759 0 0)
(0.493885 0 0)
(-0.492794 0 0)
(-0.897486 0 0)
(-0.908782 0 0)
(-0.914957 0 0)
(-0.921177 0 0)
(-0.926903 0 0)
(-0.932229 0 0)
(-0.93719 0 0)
(-0.941817 0 0)
(-0.946139 0 0)
(-0.950179 0 0)
(-0.953958 0 0)
(-0.957495 0 0)
(-0.960805 0 0)
(-0.963904 0 0)
(-0.966804 0 0)
(-0.969517 0 0)
(-0.972055 0 0)
(-0.974426 0 0)
(-0.97664 0 0)
(-0.978704 0 0)
(-0.980627 0 0)
(-0.982415 0 0)
(-0.984074 0 0)
(-0.98561 0 0)
(-0.987029 0 0)
(-0.988335 0 0)
(-0.989534 0 0)
(-0.99063 0 0)
(-0.991626 0 0)
(-0.992528 0 0)
(-0.993337 0 0)
(-0.994059 0 0)
(-0.994695 0 0)
(-0.99525 0 0)
(-0.995725 0 0)
(-0.996124 0 0)
(-0.996448 0 0)
(-0.996702 0 0)
(-0.996886 0 0)
(-0.997003 0 0)
(-0.997054 0 0)
(-0.997043 0 0)
(-0.996971 0 0)
(-0.996839 0 0)
(-0.996649 0 0)
(-0.996404 0 0)
(-0.996104 0 0)
(-0.99575 0 0)
(-0.995346 0 0)
(-0.994891 0 0)
(-0.994386 0 0)
(-0.993835 0 0)
(-0.993236 0 0)
(-0.992593 0 0)
(-0.991905 0 0)
(-0.991174 0 0)
(-0.990401 0 0)
(-0.989586 0 0)
(-0.988731 0 0)
(-0.987838 0 0)
(-0.986905 0 0)
(-0.985935 0 0)
(-0.984929 0 0)
(-0.983886 0 0)
(-0.982808 0 0)
(-0.981696 0 0)
(-0.98055 0 0)
(-0.979371 0 0)
(-0.97816 0 0)
(-0.976917 0 0)
(-0.975643 0 0)
(-0.974338 0 0)
(-0.973004 0 0)
(-0.97164 0 0)
(-0.970248 0 0)
(-0.968828 0 0)
(-0.96738 0 0)
(-0.965904 0 0)
(-0.964402 0 0)
(-0.962874 0 0)
(-0.96132 0 0)
(-0.959741 0 0)
(-0.958138 0 0)
(-0.956509 0 0)
(-0.954857 0 0)
(-0.953182 0 0)
(-0.951483 0 0)
(-0.949761 0 0)
(-0.948017 0 0)
(-0.946251 0 0)
(-0.944464 0 0)
(-0.942655 0 0)
(-0.940825 0 0)
(-0.938975 0 0)
(-0.937104 0 0)
(-0.935214 0 0)
(-0.933303 0 0)
(-0.931374 0 0)
(-0.929425 0 0)
(-0.927458 0 0)
(-0.925472 0 0)
(-0.923467 0 0)
(-0.921445 0 0)
(-0.919406 0 0)
(-0.917348 0 0)
(-0.915274 0 0)
(-0.913183 0 0)
(-0.911075 0 0)
(-0.90895 0 0)
(-0.90681 0 0)
(-0.904653 0 0)
(-0.902481 0 0)
(-0.900293 0 0)
(-0.89809 0 0)
(-0.895871 0 0)
(-0.893638 0 0)
(-0.89139 0 0)
(-0.889127 0 0)
(-0.886851 0 0)
(-0.88456 0 0)
(-0.882255 0 0)
(-0.879936 0 0)
(-0.877604 0 0)
(-0.875258 0 0)
(-0.872899 0 0)
(-0.870527 0 0)
(-0.868142 0 0)
(-0.865745 0 0)
(-0.863334 0 0)
(-0.860912 0 0)
(-0.858477 0 0)
(-0.85603 0 0)
(-0.853571 0 0)
(-0.8511 0 0)
(-0.848617 0 0)
(-0.846123 0 0)
(-0.843617 0 0)
(-0.841101 0 0)
(-0.838573 0 0)
(-0.836034 0 0)
(-0.833484 0 0)
(-0.830923 0 0)
(-0.828352 0 0)
(-0.82577 0 0)
(-0.823178 0 0)
(-0.820576 0 0)
(-0.817963 0 0)
(-0.815341 0 0)
(-0.812708 0 0)
(-0.810066 0 0)
(-0.807414 0 0)
(-0.804753 0 0)
(-0.802082 0 0)
(-0.799401 0 0)
(-0.796712 0 0)
(-0.794013 0 0)
(-0.791305 0 0)
(-0.788588 0 0)
(-0.785862 0 0)
(-0.783128 0 0)
(-0.780385 0 0)
(-0.777633 0 0)
(-0.774873 0 0)
(-0.772104 0 0)
(-0.769327 0 0)
(-0.766542 0 0)
(-0.763748 0 0)
(-0.760947 0 0)
(-0.758138 0 0)
(-0.75532 0 0)
(-0.752495 0 0)
(-0.749663 0 0)
(-0.746822 0 0)
(-0.743974 0 0)
(-0.741119 0 0)
(-0.738256 0 0)
(-0.735386 0 0)
(-0.732509 0 0)
(-0.729624 0 0)
(-0.726732 0 0)
(-0.723833 0 0)
(-0.720928 0 0)
(-0.718015 0 0)
(-0.715096 0 0)
(-0.71217 0 0)
(-0.709237 0 0)
(-0.706297 0 0)
(-0.703351 0 0)
(-0.700399 0 0)
(-0.69744 0 0)
(-0.694475 0 0)
(-0.691503 0 0)
(-0.688525 0 0)
(-0.685541 0 0)
(-0.682551 0 0)
(-0.679555 0 0)
(-0.676553 0 0)
(-0.673545 0 0)
(-0.670531 0 0)
(-0.667511 0 0)
(-0.664485 0 0)
(-0.661454 0 0)
(-0.658417 0 0)
(-0.655375 0 0)
(-0.652327 0 0)
(-0.649273 0 0)
(-0.646214 0 0)
(-0.64315 0 0)
(-0.64008 0 0)
(-0.637005 0 0)
(-0.633925 0 0)
(-0.63084 0 0)
(-0.627749 0 0)
(-0.624654 0 0)
(-0.621553 0 0)
(-0.618448 0 0)
(-0.615337 0 0)
(-0.612222 0 0)
(-0.609101 0 0)
(-0.605976 0 0)
(-0.602847 0 0)
(-0.599712 0 0)
(-0.596573 0 0)
(-0.59343 0 0)
(-0.590281 0 0)
(-0.587128 0 0)
(-0.583971 0 0)
(-0.580809 0 0)
(-0.577643 0 0)
(-0.574473 0 0)
(-0.571298 0 0)
(-0.568119 0 0)
(-0.564936 0 0)
(-0.561748 0 0)
(-0.558557 0 0)
(-0.555361 0 0)
(-0.552161 0 0)
(-0.548958 0 0)
(-0.54575 0 0)
(-0.542538 0 0)
(-0.539322 0 0)
(-0.536103 0 0)
(-0.53288 0 0)
(-0.529652 0 0)
(-0.526421 0 0)
(-0.523187 0 0)
(-0.519949 0 0)
(-0.516707 0 0)
(-0.513461 0 0)
(-0.510212 0 0)
(-0.506959 0 0)
(-0.503703 0 0)
(-0.500443 0 0)
(-0.49718 0 0)
(-0.493913 0 0)
(-0.490643 0 0)
(-0.48737 0 0)
(-0.484093 0 0)
(-0.480813 0 0)
(-0.47753 0 0)
(-0.474244 0 0)
(-0.470954 0 0)
(-0.467662 0 0)
(-0.464366 0 0)
(-0.461067 0 0)
(-0.457765 0 0)
(-0.45446 0 0)
(-0.451152 0 0)
(-0.447841 0 0)
(-0.444528 0 0)
(-0.441211 0 0)
(-0.437891 0 0)
(-0.434569 0 0)
(-0.431243 0 0)
(-0.427915 0 0)
(-0.424585 0 0)
(-0.421251 0 0)
(-0.417915 0 0)
(-0.414576 0 0)
(-0.411234 0 0)
(-0.40789 0 0)
(-0.404544 0 0)
(-0.401194 0 0)
(-0.397843 0 0)
(-0.394488 0 0)
(-0.391131 0 0)
(-0.387772 0 0)
(-0.384411 0 0)
(-0.381047 0 0)
(-0.37768 0 0)
(-0.374311 0 0)
(-0.37094 0 0)
(-0.367567 0 0)
(-0.364191 0 0)
(-0.360814 0 0)
(-0.357434 0 0)
(-0.354051 0 0)
(-0.350667 0 0)
(-0.34728 0 0)
(-0.343892 0 0)
(-0.340501 0 0)
(-0.337108 0 0)
(-0.333714 0 0)
(-0.330317 0 0)
(-0.326918 0 0)
(-0.323517 0 0)
(-0.320114 0 0)
(-0.31671 0 0)
(-0.313303 0 0)
(-0.309895 0 0)
(-0.306485 0 0)
(-0.303073 0 0)
(-0.299659 0 0)
(-0.296244 0 0)
(-0.292826 0 0)
(-0.289407 0 0)
(-0.285986 0 0)
(-0.282564 0 0)
(-0.27914 0 0)
(-0.275714 0 0)
(-0.272287 0 0)
(-0.268858 0 0)
(-0.265428 0 0)
(-0.261996 0 0)
(-0.258562 0 0)
(-0.255127 0 0)
(-0.251691 0 0)
(-0.248253 0 0)
(-0.244814 0 0)
(-0.241373 0 0)
(-0.237931 0 0)
(-0.234487 0 0)
(-0.231042 0 0)
(-0.227596 0 0)
(-0.224149 0 0)
(-0.2207 0 0)
(-0.21725 0 0)
(-0.213799 0 0)
(-0.210346 0 0)
(-0.206893 0 0)
(-0.203438 0 0)
(-0.199982 0 0)
(-0.196525 0 0)
(-0.193066 0 0)
(-0.189607 0 0)
(-0.186147 0 0)
(-0.182685 0 0)
(-0.179223 0 0)
(-0.175759 0 0)
(-0.172295 0 0)
(-0.16883 0 0)
(-0.165363 0 0)
(-0.161896 0 0)
(-0.158428 0 0)
(-0.154959 0 0)
(-0.151489 0 0)
(-0.148018 0 0)
(-0.144547 0 0)
(-0.141074 0 0)
(-0.137601 0 0)
(-0.134127 0 0)
(-0.130652 0 0)
(-0.127177 0 0)
(-0.123701 0 0)
(-0.120224 0 0)
(-0.116747 0 0)
(-0.113268 0 0)
(-0.10979 0 0)
(-0.10631 0 0)
(-0.10283 0 0)
(-0.0993499 0 0)
(-0.0958689 0 0)
(-0.0923873 0 0)
(-0.0889052 0 0)
(-0.0854226 0 0)
(-0.0819396 0 0)
(-0.0784561 0 0)
(-0.0749722 0 0)
(-0.0714878 0 0)
(-0.0680031 0 0)
(-0.064518 0 0)
(-0.0610326 0 0)
(-0.0575468 0 0)
(-0.0540607 0 0)
(-0.0505743 0 0)
(-0.0470876 0 0)
(-0.0436007 0 0)
(-0.0401135 0 0)
(-0.0366261 0 0)
(-0.0331385 0 0)
(-0.0296507 0 0)
(-0.0261628 0 0)
(-0.0226747 0 0)
(-0.0191865 0 0)
(-0.0156982 0 0)
(-0.0122098 0 0)
(-0.00872133 0 0)
(-0.00523281 0 0)
(-0.00174427 0 0)
)
;

boundaryField
{
    left
    {
        type            fixedValue;
        value           uniform (0 0 0);
    }
    right
    {
        type            fixedValue;
        value           uniform (0 0 0);
    }
    frontBackUpDown
    {
        type            empty;
    }
}


// ************************************************************************* //
