/*--------------------------------*- C++ -*----------------------------------*\
| =========                 |                                                 |
| \\      /  F ield         | OpenFOAM: The Open Source CFD Toolbox           |
|  \\    /   O peration     | Version:  2412                                  |
|   \\  /    A nd           | Website:  www.openfoam.com                      |
|    \\/     M anipulation  |                                                 |
\*---------------------------------------------------------------------------*/
FoamFile
{
    version     2.0;
    format      ascii;
    arch        "LSB;label=32;scalar=64";
    class       volScalarField;
    location    "0.3";
    object      epsilon;
}
// * * * * * * * * * * * * * * * * * * * * * * * * * * * * * * * * * * * * * //

dimensions      [0 2 -3 0 0 0 0];

internalField   nonuniform List<scalar> 
12225
(
448.248
622.894
830.557
1004.83
1150.4
1270.22
1368.62
1449.63
1516.36
1571.37
1616.74
1654.12
1684.8
1709.78
1729.83
1745.35
1756.67
1766.59
173.744
302.084
403.102
480.178
539.345
585.698
622.138
650.861
673.573
691.54
705.724
716.875
725.586
732.323
737.489
741.334
744.652
744.494
119.435
232.402
315.512
376.255
421.162
455.029
480.63
499.96
514.534
525.462
533.569
539.484
543.694
546.586
548.492
549.675
550.567
550.234
97.6414
199.979
277.776
334.832
376.772
407.859
430.863
447.789
460.145
469.044
475.313
479.575
482.315
483.911
484.683
484.909
484.923
484.521
83.6526
176.289
251.577
308.548
351.099
382.721
406.064
423.141
435.483
444.243
450.286
454.271
456.709
458.001
458.479
458.434
458.17
457.712
71.9917
153.972
226.31
283.823
328.195
361.835
387.034
405.699
419.345
429.147
436.01
440.636
443.572
445.252
446.032
446.219
446.096
445.751
61.3441
131.281
198.624
255.576
301.538
337.583
365.348
386.457
402.304
414.029
422.546
428.582
432.716
435.413
437.052
437.956
438.39
438.454
51.6696
108.73
168.486
222.629
268.751
306.556
336.797
360.608
379.12
393.344
404.136
412.21
418.15
422.439
425.47
427.573
429.003
429.849
43.2224
87.6449
137.685
186.323
230.295
268.238
299.979
326.013
347.069
363.911
377.255
387.739
395.91
402.232
407.098
410.83
413.67
415.683
36.1697
69.2408
108.631
149.499
188.751
224.538
255.993
282.973
305.732
324.696
340.357
353.204
363.691
372.225
379.16
384.792
389.34
392.833
30.4983
54.138
83.3273
115.312
147.811
179.109
208.06
234.087
257.019
276.935
294.053
308.662
321.07
331.58
340.473
347.992
354.312
359.409
26.3765
43.197
64.2821
88.2375
113.644
139.251
164.035
187.297
208.643
227.91
245.09
260.277
273.623
285.309
295.518
304.42
312.132
318.556
23.1424
34.7463
49.3126
66.2676
84.8735
104.384
124.075
143.344
161.749
179.008
194.965
209.563
222.816
234.782
245.545
255.191
263.77
271.124
20.3782
27.6943
36.7517
47.4267
59.4446
72.4822
86.1714
100.139
114.056
127.659
140.75
153.193
164.907
175.852
186.019
195.412
204.013
211.617
18.1499
22.2406
27.1487
32.9137
39.4891
46.7951
54.716
63.1049
71.8042
80.6633
89.5468
98.3391
106.946
115.295
123.332
131.013
138.28
144.932
16.4706
18.3567
20.5273
23.0282
25.8741
29.0686
32.6036
36.4547
40.5837
44.9451
49.4893
54.1662
58.9267
63.725
68.5191
73.2693
77.9272
82.3599
15.3282
15.873
16.4959
17.2132
18.0328
18.9609
20.0036
21.1643
22.4423
23.834
25.3333
26.9317
28.6187
30.3806
32.2032
34.0728
35.9717
37.8576
14.7508
14.6757
14.6369
14.6352
14.6697
14.7396
14.8449
14.986
15.163
15.3758
15.6242
15.9075
16.225
16.5768
16.9622
17.3791
17.825
18.2954
14.8977
14.9733
15.0873
15.2435
15.4418
15.6822
15.9649
16.2899
16.6563
17.0625
17.5063
17.9852
18.4962
19.0359
19.6007
20.187
20.7901
21.3965
15.9708
17.2606
18.7266
20.3955
22.2739
24.3608
26.6497
29.1247
31.7619
34.5326
37.4058
40.35
43.3344
46.3303
49.3118
52.256
55.138
57.8979
18.0496
21.997
26.6903
32.1486
38.3093
45.0764
52.3263
59.9127
67.6845
75.5017
83.2423
90.8055
98.1121
105.103
111.738
117.992
123.845
129.252
21.5632
30.653
41.9214
55.0381
69.4977
84.7822
100.381
115.834
130.776
144.949
158.185
170.394
181.542
191.639
200.722
208.848
216.079
222.457
27.2186
45.3008
67.7872
92.9388
119.107
145.002
169.645
192.394
212.923
231.138
247.087
260.907
272.781
282.908
291.489
298.715
304.761
309.785
35.7146
67.6769
105.679
144.952
182.518
216.744
246.821
272.575
294.23
312.19
326.913
338.857
348.445
356.054
362.012
366.597
370.049
372.595
47.408
97.6116
152.03
202.69
246.855
283.889
314.074
338.201
357.206
371.976
383.289
391.804
398.067
402.525
405.54
407.406
408.365
408.652
61.8882
131.752
198.705
254.807
299.835
335.07
362.112
382.56
397.801
408.962
416.939
422.438
426.011
428.09
429.011
429.039
428.39
427.276
78.4671
165.762
239.653
296.704
339.787
371.976
395.787
413.193
425.728
434.562
440.58
444.45
446.681
447.661
447.688
446.993
445.758
444.17
99.5998
200.965
279.478
337.821
380.456
411.806
434.888
451.764
463.979
472.69
478.744
482.772
485.249
486.538
486.915
486.595
485.746
484.537
144.792
258.314
348.613
417.597
468.464
506.746
535.87
558.047
574.949
587.822
597.579
604.903
610.317
614.228
616.952
618.738
619.78
620.279
366.941
498.482
666.582
808.025
923.442
1016.68
1091.7
1152.36
1201.64
1241.81
1274.65
1301.59
1323.75
1342.03
1357.12
1369.6
1379.91
1388.47
0.827919
0.795991
1.17436
1.50962
1.79066
2.03182
2.29162
2.59274
2.92327
3.28586
3.68855
4.14945
4.72797
5.47822
6.35046
7.34209
8.45768
9.7068
11.0997
12.6453
14.3502
16.2185
18.2523
20.4521
22.8173
25.3476
28.0435
30.9077
33.9466
37.1715
40.6016
44.2249
48.0037
51.9305
56.0004
60.2087
64.5515
69.0247
73.6247
78.3483
83.1921
88.1532
93.2286
98.4153
103.71
109.11
114.612
120.213
125.908
131.695
137.568
143.523
149.557
155.663
161.836
168.072
174.363
180.705
187.09
193.513
199.966
206.443
212.936
219.438
225.943
232.441
238.927
245.393
251.831
258.236
264.603
270.931
277.221
283.485
289.751
295.974
302.095
308.116
314.034
319.845
325.543
331.121
336.573
341.89
347.067
352.097
356.973
361.689
366.24
370.619
374.821
378.842
382.676
386.319
389.765
393.013
396.057
398.894
401.521
403.935
406.134
408.115
409.876
411.415
412.732
413.824
414.691
415.332
415.748
415.937
415.901
415.64
415.154
414.445
413.515
412.366
410.998
409.416
407.622
405.619
403.41
400.999
398.39
395.588
392.597
389.423
386.07
382.545
378.853
375
370.992
366.837
362.541
358.11
353.554
348.877
344.09
339.2
334.209
329.141
323.985
318.777
313.562
308.598
305.334
302.662
299.965
297.2
294.367
291.471
288.515
285.504
282.445
279.342
276.2
273.024
269.82
266.593
263.347
260.089
256.821
253.55
250.279
247.013
243.756
240.51
237.278
234.063
230.866
227.685
224.517
221.356
218.189
214.996
211.738
208.342
204.647
200.251
194.469
186.606
2.59987
1.44314
1.2901
1.34635
1.49576
1.71922
2.01127
2.3745
2.79795
3.28603
3.84315
4.47462
5.18678
5.98155
6.85225
7.79336
8.8003
9.86893
10.9951
12.1746
13.4033
14.6778
15.995
17.3531
18.751
20.1887
21.6669
23.1871
24.751
26.36
28.0145
29.7126
31.4517
33.2314
35.0513
36.9113
38.8113
40.7509
42.7297
44.7472
46.8029
48.896
51.0257
53.1913
55.3917
57.6258
59.8925
62.1905
64.5186
66.8752
69.2588
71.6679
74.1006
76.5553
79.0301
81.523
84.0321
86.5552
89.0902
91.6349
94.187
96.7443
99.3043
101.865
104.423
106.977
109.525
112.063
114.591
117.107
119.611
122.103
124.586
127.066
129.559
132.059
134.529
136.964
139.362
141.719
144.033
146.303
148.524
150.695
152.812
154.874
156.878
158.822
160.702
162.518
164.267
165.947
167.556
169.091
170.553
171.938
173.245
174.474
175.621
176.687
177.67
178.568
179.382
180.11
180.751
181.305
181.771
182.149
182.439
182.639
182.751
182.774
182.707
182.553
182.309
181.978
181.56
181.055
180.465
179.789
179.03
178.188
177.265
176.262
175.18
174.022
172.789
171.483
170.106
168.661
167.148
165.571
163.933
162.234
160.479
158.67
156.809
154.9
152.941
150.946
148.899
146.831
144.771
142.781
141.08
139.516
137.966
136.402
134.818
133.213
131.589
129.947
128.29
126.619
124.937
123.246
121.549
119.847
118.142
116.436
114.732
113.032
111.336
109.648
107.969
106.3
104.642
102.998
101.367
99.751
98.1499
96.5635
94.9909
93.4304
91.8789
90.3329
88.7839
87.2433
85.903
85.9421
4.70425
2.2869
1.93207
1.95488
2.12962
2.39094
2.72957
3.14541
3.63696
4.20173
4.8356
5.53326
6.28875
7.09535
7.94595
8.83441
9.75596
10.7072
11.6857
12.6903
13.7204
14.7763
15.8587
16.9687
18.1078
19.2772
20.4783
21.7119
22.9787
24.2786
25.6114
26.9763
28.3724
29.7991
31.2559
32.7422
34.2575
35.801
37.3723
38.9707
40.5956
42.2463
43.9222
45.6228
47.3471
49.0947
50.8646
52.6561
54.4684
56.3005
58.1514
60.0203
61.9059
63.8072
65.723
67.6519
69.5928
71.5442
73.5047
75.4729
77.4473
79.4264
81.4087
83.3926
85.3767
87.3595
89.3399
91.3166
93.2888
95.2559
97.2179
99.1751
101.128
103.079
105.028
106.963
108.876
110.763
112.621
114.448
116.242
118.001
119.722
121.404
123.045
124.642
126.194
127.698
129.154
130.559
131.911
133.21
134.454
135.641
136.769
137.838
138.847
139.794
140.678
141.498
142.254
142.945
143.569
144.126
144.617
145.039
145.393
145.679
145.895
146.043
146.122
146.132
146.072
145.944
145.748
145.483
145.151
144.751
144.285
143.753
143.156
142.495
141.771
140.984
140.137
139.231
138.266
137.244
136.167
135.037
133.854
132.621
131.34
130.012
128.639
127.224
125.768
124.274
122.736
121.177
119.59
117.984
116.377
114.798
113.304
111.864
110.437
109.005
107.564
106.112
104.65
103.178
101.698
100.212
98.7213
97.2276
95.7325
94.2378
92.745
91.2556
89.7713
88.2934
86.8234
85.3628
83.9127
82.4744
81.049
79.6378
78.2416
76.8615
75.4982
74.1528
72.8261
71.5197
70.2362
68.9821
67.7698
66.6436
65.7256
65.6046
6.89432
3.23989
2.72129
2.712
2.87579
3.14816
3.50908
3.95043
4.46632
5.05011
5.69383
6.38874
7.12631
7.89894
8.70056
9.52688
10.3755
11.2453
12.1367
13.0505
13.9882
14.9515
15.9419
16.9609
18.0098
19.0893
20.2
21.3421
22.5154
23.7195
24.9538
26.2176
27.5102
28.8309
30.1792
31.5545
32.9563
34.384
35.8373
37.3156
38.8186
40.3457
41.8966
43.4709
45.0681
46.6876
48.329
49.9917
51.675
53.3783
55.1008
56.8417
58.6
60.375
62.1655
63.9704
65.7887
67.619
69.4602
71.3109
73.1697
75.0353
76.9062
78.7811
80.6586
82.5373
84.4159
86.2933
88.1685
90.0404
91.9083
93.7715
95.6293
97.4806
99.3208
101.144
102.945
104.721
106.469
108.188
109.875
111.528
113.144
114.723
116.261
117.757
119.209
120.616
121.976
123.286
124.546
125.754
126.908
128.008
129.051
130.038
130.966
131.835
132.643
133.391
134.076
134.699
135.259
135.755
136.187
136.554
136.856
137.093
137.264
137.371
137.411
137.387
137.297
137.143
136.923
136.64
136.293
135.883
135.41
134.876
134.281
133.626
132.912
132.14
131.312
130.428
129.49
128.5
127.458
126.367
125.227
124.042
122.811
121.537
120.224
118.869
117.478
116.056
114.603
113.125
111.623
110.104
108.579
107.063
105.577
104.114
102.659
101.202
99.7397
98.2708
96.7958
95.3154
93.8311
92.3443
90.8564
89.369
87.8836
86.4017
84.9248
83.4542
81.9914
80.5377
79.0944
77.6627
76.2438
74.8389
73.449
72.0753
70.7188
69.3806
68.0618
66.7638
65.4883
64.2383
63.0185
61.8383
60.7153
59.6935
58.8614
58.4883
8.8839
4.22216
3.52726
3.44804
3.58841
3.85411
4.21327
4.65137
5.1587
5.72644
6.34565
7.00761
7.70455
8.43026
9.18045
9.95271
10.7462
11.5615
12.3997
13.2626
14.1518
15.069
16.0157
16.9929
18.0014
19.0417
20.1139
21.218
22.3536
23.5204
24.7178
25.9453
27.2023
28.4885
29.8034
31.1466
32.5178
33.9166
35.3428
36.7961
38.2761
39.7828
41.3157
42.8745
44.459
46.0688
47.7035
49.3625
51.0453
52.7513
54.4798
56.23
58.0011
59.792
61.6019
63.4295
65.2736
67.133
69.0062
70.892
72.7889
74.6952
76.6094
78.53
80.4554
82.3839
84.3141
86.2443
88.1731
90.099
92.0204
93.936
95.844
97.7415
99.6232
101.485
103.324
105.136
106.919
108.671
110.389
112.071
113.715
115.319
116.881
118.398
119.869
121.291
122.664
123.986
125.254
126.467
127.625
128.725
129.766
130.748
131.668
132.527
133.323
134.055
134.723
135.326
135.863
136.335
136.739
137.078
137.349
137.553
137.69
137.76
137.762
137.698
137.568
137.371
137.108
136.78
136.388
135.931
135.412
134.83
134.186
133.483
132.72
131.899
131.021
130.088
129.101
128.062
126.972
125.833
124.645
123.413
122.137
120.815
119.459
118.066
116.639
115.182
113.695
112.183
110.649
109.097
107.536
105.973
104.421
102.877
101.337
99.7949
98.2498
96.7009
95.1486
93.594
92.0382
90.4828
88.9293
87.379
85.8336
84.2945
82.7631
81.2409
79.729
78.229
76.7419
75.2691
73.8116
72.3707
70.9474
69.5428
68.158
66.7943
65.453
64.1358
62.8451
61.5843
60.3594
59.1807
58.0667
57.0554
56.2083
55.6513
10.6978
5.12983
4.24258
4.09588
4.20443
4.45002
4.79114
5.20839
5.68969
6.22546
6.80721
7.4274
8.07982
8.75989
9.46476
10.1932
10.9452
11.7216
12.5239
13.3537
14.2124
15.1016
16.0223
16.9754
17.9615
18.981
20.0339
21.1204
22.2401
23.3931
24.5789
25.7974
27.0482
28.3313
29.6464
30.9934
32.372
33.7823
35.2241
36.6972
38.2016
39.7371
41.3037
42.901
44.5288
46.1869
47.8748
49.5921
51.3383
53.1126
54.9145
56.743
58.5972
60.4761
62.3785
64.303
66.2485
68.2133
70.1959
72.1947
74.2079
76.2338
78.2704
80.3159
82.3683
84.4257
86.486
88.5471
90.6072
92.6641
94.7158
96.7601
98.7949
100.815
102.816
104.794
106.746
108.669
110.56
112.417
114.236
116.016
117.754
119.448
121.095
122.693
124.241
125.736
127.176
128.56
129.885
131.151
132.356
133.498
134.577
135.59
136.538
137.418
138.23
138.974
139.648
140.251
140.785
141.247
141.639
141.958
142.207
142.383
142.488
142.521
142.484
142.375
142.196
141.946
141.628
141.24
140.785
140.262
139.673
139.019
138.301
137.52
136.677
135.773
134.812
133.793
132.718
131.589
130.409
129.178
127.895
126.57
125.202
123.792
122.345
120.861
119.344
117.795
116.219
114.617
112.992
111.35
109.696
108.035
106.375
104.716
103.058
101.398
99.7359
98.0721
96.4073
94.7425
93.0792
91.4188
89.763
88.1131
86.4709
84.8377
83.215
81.6042
80.0067
78.4238
76.8567
75.3067
73.7749
72.2625
70.7706
69.3003
67.853
66.4298
65.0324
63.6628
62.3235
61.0187
59.7546
58.5419
57.3979
56.3537
55.451
54.7515
13.5727
6.10635
4.89315
4.64102
4.70016
4.91374
5.22704
5.6152
6.06399
6.56352
7.10602
7.68526
8.29642
8.93619
9.60269
10.2953
11.0142
11.7604
12.5352
13.3399
14.176
15.0445
15.9465
16.8829
17.8542
18.861
19.9035
20.9821
22.0968
23.2479
24.4354
25.6594
26.92
28.2172
29.5513
30.9222
32.3302
33.7753
35.2575
36.7771
38.3339
39.9281
41.5596
43.2283
44.9339
46.6762
48.4549
50.2695
52.1193
54.0038
55.922
57.873
59.8558
61.869
63.9113
65.9812
68.077
70.1971
72.3395
74.5022
76.6832
78.8803
81.0912
83.3135
85.5449
87.7829
90.025
92.2687
94.5114
96.7504
98.9832
101.207
103.418
105.611
107.781
109.925
112.039
114.12
116.165
118.171
120.135
122.055
123.927
125.75
127.521
129.237
130.896
132.496
134.035
135.511
136.923
138.268
139.545
140.753
141.89
142.956
143.948
144.867
145.71
146.478
147.17
147.784
148.322
148.782
149.165
149.469
149.696
149.844
149.916
149.909
149.826
149.666
149.43
149.119
148.733
148.274
147.742
147.138
146.463
145.718
144.906
144.027
143.083
142.074
141.005
139.875
138.687
137.44
136.142
134.793
133.393
131.947
130.457
128.925
127.354
125.747
124.105
122.432
120.731
119.003
117.254
115.486
113.704
111.913
110.118
108.32
106.52
104.72
102.918
101.116
99.3157
97.5172
95.7227
93.9337
92.1519
90.3788
88.616
86.8652
85.1279
83.4053
81.6991
80.0104
78.3406
76.691
75.0627
73.4569
71.8748
70.3176
68.7866
67.2833
65.8093
64.3669
62.959
61.5899
60.266
58.9976
57.8002
56.6986
55.7203
54.897
16.3337
6.97648
5.4284
5.06247
5.06534
5.24165
5.52346
5.88054
6.29661
6.76142
7.26779
7.81043
8.38557
8.99075
9.62469
10.287
10.9782
11.6989
12.4505
13.2341
14.051
14.9023
15.7891
16.7124
17.6729
18.6714
19.7086
20.7851
21.9015
23.0582
24.2557
25.4946
26.7753
28.0982
29.4639
30.8726
32.3249
33.8211
35.3614
36.9462
38.5757
40.2501
41.9694
43.7335
45.5424
47.3958
49.2933
51.2344
53.2184
55.2446
57.3118
59.419
61.5649
63.7479
65.9664
68.2186
70.5025
72.8159
75.1567
77.5223
79.9103
82.3179
84.7425
87.1811
89.631
92.089
94.5521
97.0172
99.4811
101.941
104.393
106.835
109.259
111.661
114.035
116.38
118.689
120.961
123.192
125.378
127.517
129.605
131.639
133.617
135.536
137.393
139.185
140.912
142.569
144.156
145.67
147.11
148.474
149.761
150.969
152.096
153.143
154.108
154.989
155.787
156.5
157.129
157.673
158.131
158.504
158.792
158.994
159.112
159.144
159.092
158.956
158.737
158.436
158.052
157.589
157.045
156.423
155.724
154.948
154.099
153.176
152.183
151.12
149.986
148.79
147.531
146.211
144.832
143.397
141.908
140.368
138.779
137.145
135.467
133.749
131.994
130.203
128.381
126.53
124.653
122.754
120.836
118.903
116.959
115.007
113.052
111.095
109.137
107.178
105.222
103.268
101.319
99.376
97.4415
95.5168
93.6037
91.7039
89.819
87.9505
86.1001
84.2691
82.4589
80.6708
78.9061
77.1661
75.452
73.765
72.1064
70.4775
68.88
67.3157
65.7869
64.2967
62.8496
61.4519
60.1131
58.8466
57.6719
56.6066
55.6677
18.7704
7.69414
5.83423
5.35854
5.30493
5.44324
5.69356
6.02078
6.40667
6.84048
7.31527
7.82635
8.37063
8.94618
9.55211
10.1883
10.8551
11.5534
12.2843
13.049
13.8489
14.6851
15.5589
16.4716
17.4242
18.4179
19.4538
20.5328
21.6561
22.8245
24.039
25.3005
26.61
27.9683
29.3762
30.8345
32.3439
33.905
35.5185
37.1849
38.9045
40.6778
42.5047
44.3854
46.3198
48.3077
50.3485
52.4417
54.5864
56.7817
59.0264
61.319
63.658
66.0414
68.4674
70.9336
73.4376
75.9769
78.5486
81.1499
83.7776
86.4285
89.0994
91.7869
94.4873
97.1973
99.913
102.631
105.347
108.058
110.759
113.448
116.113
118.751
121.356
123.926
126.456
128.943
131.381
133.768
136.101
138.376
140.59
142.739
144.821
146.833
148.772
150.636
152.422
154.129
155.755
157.297
158.754
160.125
161.408
162.601
163.705
164.717
165.637
166.465
167.199
167.839
168.386
168.839
169.199
169.464
169.636
169.715
169.701
169.595
169.397
169.109
168.731
168.265
167.711
167.072
166.348
165.54
164.65
163.679
162.633
161.51
160.313
159.045
157.707
156.303
154.835
153.305
151.716
150.07
148.372
146.622
144.825
142.983
141.1
139.178
137.22
135.23
133.211
131.166
129.098
127.011
124.909
122.795
120.673
118.547
116.418
114.288
112.16
110.036
107.916
105.804
103.7
101.608
99.5278
97.4625
95.4135
93.3825
91.3713
89.3813
87.4141
85.471
83.5535
81.6629
79.8004
77.9674
76.1651
74.3948
72.6581
70.9566
69.2921
67.6672
66.0851
64.5502
63.0686
61.6488
60.3022
59.0438
57.8844
56.8339
20.8025
8.25141
6.11624
5.54061
5.43371
5.5356
5.75609
6.05583
6.41478
6.82155
7.26919
7.7533
8.27114
8.82116
9.40271
10.0158
10.661
11.3392
12.0516
12.7995
13.5843
14.4077
15.2711
16.1761
17.1242
18.117
19.156
20.2429
21.3789
22.5658
23.8049
25.0976
26.4453
27.8493
29.3108
30.8311
32.4112
34.0521
35.7546
37.5195
39.3473
41.2386
43.1936
45.2124
47.2948
49.4406
51.6491
53.9197
56.2513
58.6427
61.0923
63.5984
66.159
68.7718
71.4343
74.1438
76.8974
79.6918
82.5237
85.3896
88.2857
91.2083
94.1535
97.1171
100.095
103.083
106.078
109.073
112.066
115.052
118.027
120.982
123.908
126.801
129.655
132.468
135.234
137.948
140.608
143.208
145.746
148.218
150.619
152.948
155.2
157.372
159.462
161.468
163.386
165.215
166.953
168.597
170.147
171.6
172.956
174.212
175.369
176.425
177.379
178.23
178.979
179.625
180.167
180.607
180.944
181.178
181.31
181.341
181.27
181.099
180.829
180.461
179.995
179.433
178.777
178.028
177.189
176.261
175.244
174.143
172.958
171.694
170.35
168.931
167.438
165.875
164.244
162.548
160.79
158.974
157.101
155.176
153.202
151.181
149.117
147.014
144.874
142.702
140.5
138.272
136.021
133.752
131.467
129.17
126.866
124.557
122.246
119.936
117.629
115.327
113.032
110.747
108.473
106.214
103.97
101.743
99.5363
97.3508
95.1883
93.0506
90.939
88.8552
86.8005
84.7763
82.7839
80.8246
78.8997
77.0108
75.1592
73.3467
71.5753
69.8475
68.1666
66.5368
64.9639
63.4554
62.0208
60.6717
59.414
58.2543
22.3924
8.65387
6.28827
5.62587
5.47085
5.53902
5.73192
6.00668
6.34168
6.72488
7.14913
7.61012
8.1053
8.63332
9.19375
9.78678
10.4131
11.0739
11.7704
12.5043
13.2774
14.0914
14.9483
15.8501
16.7989
17.7967
18.8456
19.9477
21.1051
22.3198
23.5938
24.9291
26.3275
27.7909
29.3208
30.919
32.5869
34.3257
36.1366
38.0205
39.9783
42.0103
44.1171
46.2985
48.5545
50.8845
53.2878
55.7634
58.3099
60.9258
63.609
66.3574
69.1685
72.0394
74.9671
77.9482
80.9792
84.0561
87.1749
90.3313
93.521
96.7396
99.9823
103.245
106.522
109.809
113.101
116.394
119.682
122.96
126.223
129.456
132.654
135.812
138.924
141.987
144.995
147.943
150.827
153.644
156.388
159.057
161.646
164.153
166.572
168.902
171.139
173.281
175.326
177.27
179.113
180.853
182.487
184.015
185.434
186.744
187.945
189.034
190.011
190.876
191.628
192.267
192.794
193.209
193.511
193.702
193.782
193.751
193.611
193.362
193.007
192.545
191.979
191.309
190.539
189.67
188.703
187.641
186.485
185.239
183.905
182.485
180.982
179.398
177.738
176.003
174.196
172.322
170.383
168.382
166.324
164.21
162.046
159.834
157.578
155.282
152.949
150.583
148.187
145.765
143.321
140.859
138.382
135.893
133.398
130.898
128.398
125.9
123.406
120.92
118.444
115.98
113.53
111.098
108.684
106.29
103.92
101.574
99.2554
96.9646
94.7036
92.474
90.2771
88.1144
85.9873
83.8971
81.8451
79.8329
77.8619
75.9339
74.0511
72.2159
70.4315
68.702
67.0327
65.4302
63.9023
62.4578
61.0995
59.8325
23.5275
8.91282
6.36671
5.63296
5.4362
5.47405
5.6418
5.89394
6.20761
6.57018
6.97428
7.41559
7.89163
8.40124
8.94415
9.5208
10.1321
10.7795
11.4646
12.1894
12.956
13.7668
14.6241
15.5306
16.4888
17.5015
18.5712
19.7007
20.8928
22.1499
23.4747
24.8697
26.3373
27.8798
29.4993
31.1978
32.9771
34.8388
36.7842
38.8144
40.9302
43.1322
45.4205
47.7953
50.2559
52.8017
55.4315
58.144
60.9373
63.8092
66.7573
69.7787
72.8703
76.0286
79.2498
82.5298
85.8644
89.2488
92.6781
96.1473
99.6513
103.185
106.743
110.32
113.911
117.511
121.113
124.713
128.306
131.885
135.437
138.951
142.422
145.844
149.212
152.521
155.766
158.942
162.044
165.068
168.01
170.866
173.632
176.305
178.88
181.354
183.724
185.989
188.145
190.191
192.124
193.943
195.646
197.231
198.699
200.047
201.275
202.382
203.366
204.228
204.967
205.584
206.079
206.452
206.704
206.836
206.849
206.742
206.518
206.178
205.722
205.154
204.473
203.683
202.785
201.781
200.673
199.465
198.157
196.754
195.257
193.67
191.995
190.236
188.395
186.477
184.484
182.421
180.29
178.095
175.84
173.528
171.165
168.752
166.295
163.797
161.262
158.694
156.096
153.474
150.829
148.167
145.491
142.804
140.112
137.417
134.723
132.032
129.349
126.675
124.014
121.367
118.738
116.129
113.542
110.979
108.443
105.934
103.456
101.01
98.5969
96.219
93.8776
91.5742
89.31
87.0866
84.9053
82.7675
80.6749
78.6292
76.6325
74.6874
72.7968
70.9647
69.1959
67.4961
65.8717
64.3292
62.8695
61.4972
24.2102
9.04142
6.36774
5.57952
5.3484
5.35993
5.50531
5.73731
6.03225
6.37711
6.7644
7.18976
7.65084
8.14664
8.67712
9.24298
9.84552
10.4865
11.1679
11.8924
12.6624
13.481
14.3511
15.2759
16.2588
17.303
18.4119
19.589
20.8374
22.1604
23.5612
25.0428
26.6081
28.2598
30.0005
31.8324
33.7576
35.7778
37.8944
40.1084
42.4206
44.8314
47.3406
49.9479
52.6524
55.4528
58.3475
61.3344
64.411
67.5744
70.8214
74.1483
77.5511
81.0256
84.5672
88.171
91.8321
95.5449
99.3032
103.101
106.933
110.793
114.675
118.574
122.484
126.399
130.313
134.22
138.115
141.988
145.818
149.602
153.333
157.004
160.612
164.15
167.613
170.996
174.295
177.505
180.622
183.643
186.564
189.38
192.086
194.68
197.159
199.521
201.765
203.887
205.886
207.76
209.507
211.128
212.619
213.981
215.214
216.314
217.284
218.121
218.827
219.402
219.845
220.159
220.342
220.397
220.324
220.125
219.8
219.351
218.781
218.089
217.28
216.353
215.313
214.161
212.899
211.531
210.059
208.486
206.815
205.049
203.191
201.246
199.215
197.104
194.916
192.654
190.322
187.925
185.466
182.949
180.38
177.76
175.096
172.39
169.647
166.872
164.068
161.24
158.39
155.525
152.646
149.759
146.868
143.975
141.085
138.202
135.327
132.465
129.618
126.789
123.98
121.195
118.434
115.702
112.999
110.328
107.691
105.089
102.524
99.9985
97.5128
95.0688
92.6678
90.3112
88.0006
85.7373
83.5229
81.3592
79.2483
77.1926
75.1951
73.2595
71.3899
69.5914
67.869
66.2279
64.6673
63.1923
24.4506
9.05262
6.30599
5.48127
5.22413
5.2142
5.34076
5.55584
5.83546
6.16653
6.54159
6.95642
7.40887
7.8982
8.42473
8.98953
9.59435
10.2414
10.9334
11.6733
12.4646
13.3107
14.2154
15.1827
16.2166
17.3212
18.5005
19.7588
21.0998
22.5272
24.0445
25.6554
27.363
29.1705
31.0806
33.0955
35.2174
37.4477
39.7877
42.2382
44.7993
47.471
50.2525
53.1428
56.1402
59.2427
62.4476
65.7521
69.1527
72.6455
76.2262
79.8904
83.633
87.4488
91.3325
95.2784
99.281
103.335
107.431
111.562
115.723
119.908
124.11
128.323
132.542
136.76
140.971
145.169
149.349
153.482
157.563
161.587
165.545
169.434
173.247
176.979
180.625
184.179
187.638
190.996
194.251
197.397
200.432
203.351
206.15
208.827
211.379
213.804
216.1
218.264
220.296
222.192
223.953
225.577
227.062
228.409
229.616
230.684
231.611
232.398
233.045
233.552
233.921
234.151
234.244
234.201
234.022
233.709
233.265
232.689
231.985
231.155
230.199
229.122
227.924
226.61
225.181
223.64
221.991
220.237
218.381
216.426
214.376
212.235
210.007
207.695
205.303
202.836
200.298
197.693
195.025
192.299
189.518
186.688
183.813
180.898
177.945
174.961
171.949
168.914
165.86
162.79
159.71
156.623
153.533
150.444
147.36
144.285
141.222
138.174
135.143
132.134
129.149
126.19
123.259
120.36
117.494
114.663
111.87
109.115
106.402
103.731
101.103
98.5213
95.986
93.4987
91.061
88.6743
86.3401
84.0602
81.8367
79.6719
77.5685
75.5301
73.5602
71.6634
69.8436
68.1047
66.4452
64.8706
24.2643
8.958
6.19389
5.35176
5.07825
5.0532
5.16619
5.36954
5.63959
5.96358
6.3344
6.74822
7.20335
7.69956
8.23771
8.8195
9.44716
10.1236
10.8523
11.637
12.4818
13.3913
14.3699
15.4224
16.5536
17.7683
19.0715
20.4682
21.9633
23.5585
25.2585
27.0671
28.9876
31.0231
33.1759
35.448
37.841
40.3557
42.9925
45.7515
48.6318
51.6323
54.7512
57.9863
61.3347
64.7933
68.3582
72.0252
75.7898
79.6469
83.5913
87.6172
91.7187
95.8897
100.124
104.415
108.755
113.14
117.559
122.008
126.478
130.964
135.46
139.958
144.453
148.94
153.412
157.865
162.267
166.611
170.891
175.1
179.233
183.284
187.247
191.117
194.89
198.56
202.123
205.575
208.912
212.131
215.227
218.198
221.04
223.75
226.327
228.767
231.068
233.23
235.25
237.126
238.859
240.446
241.887
243.181
244.328
245.328
246.18
246.885
247.443
247.854
248.119
248.239
248.216
248.049
247.742
247.294
246.708
245.987
245.13
244.142
243.025
241.78
240.411
238.92
237.31
235.585
233.749
231.803
229.752
227.6
225.35
223.007
220.574
218.056
215.457
212.781
210.033
207.217
204.339
201.401
198.41
195.369
192.284
189.159
185.998
182.807
179.59
176.35
173.093
169.824
166.545
163.262
159.978
156.698
153.426
150.165
146.918
143.689
140.482
137.298
134.142
131.015
127.921
124.86
121.837
118.852
115.909
113.007
110.15
107.339
104.576
101.861
99.1962
96.5831
94.0229
91.5171
89.0672
86.675
84.3424
82.0716
79.8654
77.7267
75.659
73.6659
71.7508
69.9166
68.1615
66.4913
23.6333
8.75937
6.03776
5.19916
4.92083
4.88951
4.99746
5.19849
5.47002
5.80021
6.18279
6.61482
7.09547
7.62548
8.20685
8.84272
9.53512
10.288
11.106
11.9939
12.957
14.0004
15.1296
16.3501
17.6673
19.0864
20.6125
22.2505
24.0046
25.8784
27.8752
29.9981
32.2496
34.6315
37.1452
39.7913
42.5697
45.4801
48.5211
51.691
54.9874
58.4075
61.9477
65.6043
69.3729
73.2486
77.2264
81.3006
85.4655
89.7149
94.0426
98.4418
102.906
107.428
112.002
116.619
121.274
125.959
130.668
135.392
140.126
144.864
149.599
154.325
159.039
163.733
168.402
173.013
177.557
182.03
186.425
190.737
194.96
199.089
203.119
207.045
210.863
214.568
218.156
221.624
224.968
228.184
231.27
234.221
237.036
239.712
242.247
244.638
246.883
248.982
250.932
252.733
254.382
255.881
257.227
258.42
259.46
260.347
261.081
261.662
262.091
262.368
262.493
262.469
262.296
261.975
261.508
260.897
260.143
259.248
258.216
257.047
255.745
254.313
252.752
251.067
249.26
247.335
245.296
243.146
240.888
238.527
236.067
233.512
230.867
228.135
225.322
222.432
219.469
216.439
213.346
210.196
206.992
203.74
200.444
197.11
193.742
190.346
186.925
183.484
180.028
176.562
173.089
169.614
166.142
162.676
159.22
155.779
152.355
148.952
145.574
142.223
138.902
135.614
132.362
129.148
125.974
122.842
119.754
116.713
113.719
110.774
107.88
105.039
102.25
99.517
96.8398
94.2201
91.6595
89.1596
86.7223
84.3497
82.0443
79.8089
77.6465
75.5602
73.5528
71.6267
69.7797
68.0185
22.731
8.56101
5.88936
5.0627
4.79066
4.76658
4.8858
5.10431
5.40131
5.76661
6.19557
6.68681
7.24112
7.86075
8.54911
9.31038
10.1491
11.0705
12.0801
13.1839
14.3878
15.6977
17.1191
18.6577
20.3183
22.1055
24.0235
26.0755
28.2643
30.5917
33.0592
35.6672
38.4158
41.3042
44.3311
47.4944
50.7916
54.2194
57.7743
61.4521
65.2484
69.1581
73.176
77.2966
81.5141
85.8225
90.2156
94.687
99.2301
103.839
108.505
113.224
117.988
122.79
127.623
132.482
137.359
142.248
147.143
152.038
156.927
161.805
166.667
171.509
176.327
181.107
185.817
190.454
195.012
199.486
203.871
208.162
212.354
216.443
220.425
224.294
228.048
231.682
235.193
238.577
241.831
244.952
247.938
250.784
253.489
256.051
258.468
260.737
262.856
264.825
266.642
268.306
269.816
271.171
272.37
273.413
274.3
275.031
275.605
276.024
276.287
276.395
276.349
276.151
275.801
275.3
274.651
273.854
272.913
271.828
270.604
269.24
267.742
266.111
264.35
262.463
260.453
258.323
256.078
253.721
251.255
248.686
246.018
243.254
240.4
237.46
234.438
231.341
228.171
224.935
221.638
218.284
214.878
211.426
207.932
204.401
200.839
197.251
193.64
190.012
186.372
182.723
179.072
175.421
171.775
168.138
164.515
160.909
157.323
153.762
150.228
146.724
143.254
139.821
136.426
133.072
129.761
126.496
123.278
120.109
116.992
113.926
110.914
107.957
105.057
102.214
99.4301
96.7066
94.0448
91.4464
88.913
86.4467
84.0498
81.7247
79.4743
77.3011
75.2076
73.1957
71.2633
69.4178
21.6457
8.31991
5.74987
4.95801
4.71285
4.71973
4.87917
5.15067
5.5165
5.96942
6.50773
7.13298
7.84875
8.65999
9.57248
10.5925
11.7264
12.9806
14.3612
15.8741
17.5242
19.316
21.253
23.3379
25.5726
27.9578
30.4934
33.1785
36.0115
38.9896
42.1099
45.3686
48.7615
52.2841
55.9314
59.6981
63.5789
67.5681
71.6601
75.8489
80.1286
84.4934
88.9373
93.4543
98.0385
102.684
107.385
112.135
116.928
121.759
126.623
131.512
136.422
141.346
146.28
151.218
156.155
161.085
166.005
170.909
175.794
180.655
185.49
190.297
195.052
199.732
204.332
208.849
213.28
217.619
221.862
226.006
230.046
233.978
237.799
241.505
245.092
248.558
251.898
255.109
258.189
261.135
263.944
266.614
269.141
271.525
273.763
275.854
277.795
279.585