/*--------------------------------*- C++ -*----------------------------------*\
| =========                 |                                                 |
| \\      /  F ield         | OpenFOAM: The Open Source CFD Toolbox           |
|  \\    /   O peration     | Version:  2412                                  |
|   \\  /    A nd           | Website:  www.openfoam.com                      |
|    \\/     M anipulation  |                                                 |
\*---------------------------------------------------------------------------*/
FoamFile
{
    version     2.0;
    format      ascii;
    arch        "LSB;label=32;scalar=64";
    class       volScalarField;
    location    "0.3";
    object      nut;
}
// * * * * * * * * * * * * * * * * * * * * * * * * * * * * * * * * * * * * * //

dimensions      [0 2 -1 0 0 0 0];

internalField   nonuniform List<scalar> 
12225
(
2.015e-05
2.24858e-05
2.47491e-05
2.63715e-05
2.7588e-05
2.85143e-05
2.92324e-05
2.97981e-05
3.02485e-05
3.061e-05
3.09018e-05
3.11381e-05
3.13294e-05
3.14835e-05
3.16061e-05
3.17004e-05
3.17687e-05
3.18284e-05
0.000167792
0.000185428
0.000202597
0.000213787
0.000221146
0.000225984
0.000229002
0.00023072
0.000231515
0.000231644
0.000231292
0.000230594
0.00022965
0.000228531
0.000227296
0.00022597
0.000224709
0.000224072
0.000338328
0.000365994
0.000399362
0.000424407
0.00044278
0.000456139
0.000465649
0.000472249
0.000476658
0.000479411
0.000480906
0.000481448
0.000481266
0.000480531
0.000479378
0.000477904
0.0004763
0.000475461
0.000480632
0.000521771
0.000570122
0.000608391
0.000637803
0.00066021
0.0006771
0.000689692
0.000698954
0.000705626
0.000710281
0.000713361
0.000715208
0.000716088
0.00071621
0.000715741
0.000714911
0.000714432
0.00059357
0.000650968
0.00071349
0.000763786
0.000803284
0.000834124
0.00085809
0.000876631
0.000890897
0.000901785
0.000909999
0.000916089
0.000920491
0.000923548
0.000925533
0.000926672
0.000927219
0.000927686
0.000684418
0.000756656
0.000831951
0.000893055
0.000941627
0.000980104
0.00101056
0.00103466
0.0010537
0.0010687
0.00108048
0.00108967
0.00109678
0.00110221
0.0011063
0.00110932
0.00111153
0.00111331
0.000759757
0.00084284
0.000928292
0.000998648
0.00105522
0.00110054
0.00113687
0.00116606
0.00118953
0.00120842
0.00122362
0.00123583
0.00124563
0.00125348
0.00125974
0.00126473
0.0012687
0.00127194
0.000823625
0.000913365
0.00100525
0.00108261
0.00114578
0.00119702
0.00123857
0.00127237
0.00129992
0.00132243
0.00134086
0.00135597
0.00136839
0.00137861
0.00138703
0.00139399
0.00139973
0.00140448
0.000877003
0.000970916
0.0010653
0.00114672
0.00121456
0.00127046
0.0013164
0.00135421
0.00138542
0.00141126
0.00143271
0.00145058
0.00146551
0.00147804
0.00148859
0.0014975
0.001505
0.00151124
0.000918258
0.00101593
0.00110995
0.00119241
0.00126253
0.0013214
0.00137055
0.00141157
0.00144587
0.00147463
0.00149882
0.00151925
0.00153658
0.00155134
0.00156396
0.00157478
0.001584
0.00159172
0.000944751
0.00104624
0.0011388
0.00122006
0.00129015
0.00135004
0.0014009
0.00144402
0.0014806
0.0015117
0.00153823
0.00156093
0.00158044
0.00159729
0.0016119
0.00162457
0.0016355
0.00164465
0.000953929
0.00105647
0.00114713
0.00122621
0.0012948
0.00135413
0.00140528
0.0014493
0.00148719
0.00151986
0.00154809
0.00157258
0.00159388
0.00161249
0.00162881
0.00164312
0.00165556
0.00166602
0.000951545
0.0010519
0.00114069
0.00121791
0.00128482
0.0013429
0.00139336
0.00143724
0.00147545
0.00150878
0.00153794
0.00156353
0.00158606
0.00160596
0.0016236
0.00163923
0.00165293
0.00166447
0.000937266
0.00102693
0.00110961
0.00118333
0.00124793
0.00130434
0.00135362
0.00139676
0.00143463
0.001468
0.00149751
0.00152369
0.00154702
0.00156787
0.00158656
0.0016033
0.00161811
0.00163063
0.000914065
0.000982516
0.00105
0.00111401
0.00117277
0.00122566
0.00127281
0.00131462
0.00135169
0.00138461
0.00141396
0.00144023
0.00146384
0.00148514
0.00150441
0.00152186
0.00153745
0.00155068
0.000888181
0.000929364
0.000972527
0.00101672
0.00106056
0.0011029
0.00114291
0.00118011
0.00121428
0.00124543
0.00127374
0.00129945
0.00132281
0.00134407
0.00136347
0.00138116
0.00139714
0.00141081
0.000866165
0.000882903
0.000901456
0.000921824
0.000943709
0.000966716
0.000990418
0.00101437
0.00103813
0.00106136
0.00108377
0.00110518
0.00112548
0.00114459
0.00116249
0.0011792
0.00119465
0.00120841
0.000853647
0.000856463
0.000860483
0.000865723
0.000872136
0.000879656
0.000888213
0.000897719
0.000908059
0.000919104
0.000930715
0.00094275
0.000955074
0.000967562
0.000980093
0.000992551
0.00100481
0.00101665
0.000856838
0.00086304
0.000870433
0.000879025
0.000888701
0.000899308
0.000910677
0.000922625
0.000934956
0.000947485
0.000960044
0.000972495
0.000984725
0.000996651
0.00100821
0.00101937
0.00103006
0.00104006
0.000879014
0.000910093
0.000943006
0.000977101
0.00101138
0.00104494
0.00107708
0.00110731
0.00113536
0.00116111
0.00118459
0.0012059
0.0012252
0.00124266
0.00125845
0.00127275
0.00128565
0.00129725
0.000912428
0.000978633
0.00104329
0.00110415
0.00115969
0.00120945
0.00125358
0.00129251
0.00132677
0.00135691
0.00138345
0.00140686
0.00142755
0.00144588
0.00146213
0.00147658
0.00148943
0.00150098
0.000944652
0.00103937
0.00112415
0.00119816
0.00126209
0.00131726
0.00136492
0.0014061
0.00144172
0.00147255
0.00149929
0.00152252
0.00154273
0.00156034
0.00157572
0.00158915
0.00160091
0.00161125
0.000952969
0.00105495
0.00114494
0.00122286
0.00128968
0.00134681
0.00139548
0.00143685
0.001472
0.0015019
0.00152736
0.00154908
0.00156764
0.00158352
0.00159712
0.00160878
0.00161878
0.00162735
0.000919762
0.00101577
0.00110711
0.00118655
0.00125366
0.00130983
0.00135663
0.00139556
0.001428
0.00145508
0.00147772
0.00149669
0.0015126
0.00152595
0.00153716
0.00154657
0.00155445
0.00156098
0.000847919
0.000936212
0.00102591
0.00110193
0.0011644
0.00121544
0.00125709
0.00129112
0.00131899
0.00134186
0.00136065
0.00137609
0.00138878
0.00139919
0.00140773
0.00141469
0.00142033
0.0014248
0.00074824
0.000825344
0.000905836
0.000972005
0.00102523
0.00106796
0.00110226
0.00112982
0.00115199
0.00116982
0.00118414
0.00119563
0.00120479
0.00121206
0.00121778
0.00122222
0.00122561
0.00122806
0.000620838
0.000679397
0.000743804
0.000795902
0.000837071
0.000869521
0.000895045
0.000915071
0.000930737
0.000942939
0.000952375
0.000959599
0.000965046
0.000969062
0.000971925
0.000973854
0.000975024
0.000975552
0.000453206
0.00049108
0.000536513
0.000572227
0.000599359
0.000619976
0.000635558
0.000647218
0.000655838
0.000662097
0.000666517
0.000669499
0.000671353
0.000672324
0.000672601
0.000672335
0.000671644
0.000670627
0.00023657
0.00025923
0.000284033
0.000301436
0.000313162
0.000321243
0.000326756
0.000330374
0.000332602
0.000333804
0.000334243
0.000334113
0.000333558
0.000332689
0.000331589
0.000330323
0.000328939
0.000327501
2.7242e-05
3.0171e-05
3.32397e-05
3.54417e-05
3.70547e-05
3.8262e-05
3.91809e-05
3.98936e-05
4.04543e-05
4.09001e-05
4.12575e-05
4.15462e-05
4.17807e-05
4.1972e-05
4.21288e-05
4.22576e-05
4.23633e-05
4.24507e-05
4.848e-06
1.31564e-05
1.49687e-05
1.62662e-05
1.72087e-05
1.79383e-05
1.86613e-05
1.94335e-05
2.02143e-05
2.10049e-05
2.18166e-05
2.26758e-05
2.36693e-05
2.48447e-05
2.60823e-05
2.73572e-05
2.86594e-05
2.99865e-05
3.13366e-05
3.27066e-05
3.40922e-05
3.54878e-05
3.68881e-05
3.82879e-05
3.96829e-05
4.107e-05
4.24474e-05
4.38149e-05
4.51739e-05
4.65278e-05
4.78822e-05
4.92301e-05
5.05568e-05
5.18607e-05
5.31416e-05
5.43996e-05
5.56347e-05
5.68474e-05
5.80381e-05
5.92073e-05
6.03554e-05
6.14831e-05
6.25908e-05
6.36791e-05
6.47483e-05
6.57989e-05
6.68313e-05
6.78458e-05
6.88426e-05
6.9822e-05
7.07841e-05
7.1729e-05
7.26569e-05
7.35677e-05
7.44615e-05
7.53383e-05
7.61981e-05
7.70407e-05
7.78661e-05
7.86742e-05
7.94649e-05
8.02381e-05
8.09937e-05
8.17315e-05
8.24515e-05
8.31535e-05
8.38374e-05
8.45031e-05
8.51507e-05
8.578e-05
8.63914e-05
8.69854e-05
8.75628e-05
8.81255e-05
8.86767e-05
8.92124e-05
8.97271e-05
9.02219e-05
9.06971e-05
9.1153e-05
9.15896e-05
9.2007e-05
9.2405e-05
9.27836e-05
9.31428e-05
9.34824e-05
9.38026e-05
9.41031e-05
9.43841e-05
9.46455e-05
9.48873e-05
9.51095e-05
9.53122e-05
9.54953e-05
9.56589e-05
9.5803e-05
9.59277e-05
9.60329e-05
9.61189e-05
9.61855e-05
9.62329e-05
9.62612e-05
9.62704e-05
9.62606e-05
9.62319e-05
9.61843e-05
9.6118e-05
9.6033e-05
9.59295e-05
9.58075e-05
9.56671e-05
9.55085e-05
9.53317e-05
9.51369e-05
9.49242e-05
9.46938e-05
9.44458e-05
9.41803e-05
9.38976e-05
9.35977e-05
9.32809e-05
9.29473e-05
9.25971e-05
9.22306e-05
9.1848e-05
9.14494e-05
9.10352e-05
9.06057e-05
9.01609e-05
8.97014e-05
8.92273e-05
8.87389e-05
8.82366e-05
8.77207e-05
8.71916e-05
8.66496e-05
8.60951e-05
8.55286e-05
8.49499e-05
8.43609e-05
8.37603e-05
8.3151e-05
8.25368e-05
8.19403e-05
8.14911e-05
8.10928e-05
8.06906e-05
8.02807e-05
7.98629e-05
7.94375e-05
7.90048e-05
7.85653e-05
7.81193e-05
7.76672e-05
7.72093e-05
7.67462e-05
7.62781e-05
7.58056e-05
7.53291e-05
7.48489e-05
7.43654e-05
7.38791e-05
7.33904e-05
7.28996e-05
7.24071e-05
7.19132e-05
7.14181e-05
7.09221e-05
7.04253e-05
6.99275e-05
6.94284e-05
6.89273e-05
6.8423e-05
6.79131e-05
6.73935e-05
6.68561e-05
6.62832e-05
6.56299e-05
6.48172e-05
6.37579e-05
7.09933e-06
3.16612e-05
6.29406e-05
8.75928e-05
0.00010507
0.00011754
0.000125561
0.000130759
0.000135006
0.000139122
0.00014331
0.000147495
0.00015155
0.000155464
0.000159365
0.00016335
0.000167509
0.000171919
0.00017665
0.000181761
0.000187294
0.000193282
0.000199738
0.000206666
0.000214056
0.000221886
0.000230128
0.000238742
0.000247686
0.000256916
0.000266393
0.000276092
0.000285994
0.000296071
0.000306296
0.00031664
0.000327081
0.000337596
0.000348167
0.000358778
0.000369417
0.000380073
0.000390736
0.000401402
0.000412062
0.000422715
0.000433354
0.000443977
0.000454581
0.000465163
0.00047572
0.000486248
0.000496745
0.000507206
0.000517628
0.000528007
0.000538338
0.000548616
0.000558838
0.000568996
0.000579088
0.000589107
0.000599048
0.000608907
0.000618677
0.000628353
0.00063793
0.0006474
0.000656756
0.000665987
0.000675076
0.000684002
0.00069273
0.000701211
0.000709247
0.000716772
0.000724099
0.000731276
0.00073831
0.000745202
0.000751948
0.000758549
0.000764999
0.000771299
0.000777444
0.000783433
0.000789264
0.000794935
0.000800444
0.000805788
0.000810968
0.000815981
0.000820826
0.000825502
0.000830007
0.000834341
0.000838503
0.000842492
0.000846307
0.000849947
0.000853413
0.000856702
0.000859816
0.000862753
0.000865514
0.000868097
0.000870503
0.000872731
0.00087478
0.000876652
0.000878345
0.00087986
0.000881197
0.000882354
0.000883334
0.000884135
0.000884757
0.000885202
0.000885469
0.000885559
0.000885472
0.000885209
0.000884771
0.000884158
0.000883371
0.000882412
0.000881281
0.00087998
0.000878511
0.000876874
0.000875073
0.000873108
0.000870983
0.000868698
0.000866258
0.000863663
0.000860919
0.000858029
0.000854987
0.000851816
0.000848506
0.000845032
0.000841321
0.000837076
0.000831378
0.000824847
0.000818005
0.000810993
0.000803857
0.00079662
0.000789293
0.000781886
0.000774406
0.00076686
0.000759254
0.000751595
0.000743888
0.00073614
0.000728355
0.000720539
0.000712698
0.000704837
0.000696961
0.000689074
0.000681181
0.000673287
0.000665395
0.000657509
0.000649632
0.000641764
0.000633907
0.000626058
0.000618213
0.00061036
0.000602479
0.000594531
0.000586414
0.00057787
0.000565324
0.000541859
8.65095e-06
5.06446e-05
0.000103866
0.00014496
0.000174172
0.000193889
0.000207288
0.000216955
0.000224768
0.000231884
0.000238899
0.000246064
0.000253481
0.000261223
0.000269382
0.000278063
0.000287373
0.000297419
0.000308297
0.000320085
0.000332839
0.000346587
0.000361333
0.000377056
0.000393712
0.00041124
0.000429565
0.000448604
0.000468269
0.000488476
0.000509144
0.000530204
0.00055159
0.000573241
0.000595102
0.000617124
0.000639267
0.000661495
0.000683778
0.000706095
0.000728426
0.000750756
0.000773073
0.000795368
0.000817634
0.000839864
0.000862051
0.000884191
0.000906277
0.000928304
0.000950266
0.000972156
0.000993966
0.00101569
0.00103731
0.00105883
0.00108024
0.00110152
0.00112266
0.00114365
0.00116448
0.00118514
0.00120561
0.00122588
0.00124594
0.00126577
0.00128535
0.00130467
0.00132371
0.00134244
0.00136084
0.00137886
0.00139647
0.00141364
0.00143013
0.00144613
0.00146177
0.0014771
0.00149211
0.00150682
0.00152121
0.00153528
0.00154903
0.00156245
0.00157553
0.00158828
0.00160068
0.00161274
0.00162444
0.00163579
0.00164678
0.00165741
0.00166768
0.00167757
0.0016871
0.00169625
0.00170503
0.00171344
0.00172146
0.00172911
0.00173637
0.00174326
0.00174976
0.00175588
0.00176161
0.00176696
0.00177192
0.00177649
0.00178068
0.00178449
0.0017879
0.00179093
0.00179357
0.00179582
0.00179769
0.00179916
0.00180026
0.00180096
0.00180129
0.00180122
0.00180078
0.00179996
0.00179875
0.00179717
0.00179522
0.00179289
0.00179019
0.00178713
0.0017837
0.00177992
0.00177578
0.00177129
0.00176646
0.00176129
0.00175579
0.00174996
0.00174382
0.00173737
0.00173062
0.00172357
0.00171623
0.00170853
0.00170035
0.00169136
0.00168095
0.00166947
0.00165737
0.00164487
0.00163205
0.00161899
0.0016057
0.00159221
0.00157854
0.00156469
0.0015507
0.00153657
0.0015223
0.00150793
0.00149345
0.00147887
0.00146422
0.0014495
0.00143472
0.00141989
0.00140503
0.00139013
0.00137522
0.00136029
0.00134536
0.00133042
0.00131548
0.00130052
0.00128555
0.00127052
0.00125539
0.00124003
0.00122419
0.00120717
0.00118558
0.00114848
9.82647e-06
6.95004e-05
0.000138183
0.00019059
0.000227684
0.000253722
0.000272365
0.00028648
0.000298163
0.000308813
0.000319283
0.000330053
0.000341388
0.000353453
0.000366379
0.000380286
0.000395286
0.00041148
0.00042895
0.00044775
0.000467905
0.00048941
0.000512227
0.000536292
0.000561522
0.000587817
0.000615067
0.000643161
0.000671988
0.00070144
0.000731422
0.000761842
0.000792623
0.000823693
0.000854989
0.00088646
0.000918061
0.000949753
0.000981506
0.0010133
0.0010451
0.0010769
0.00110869
0.00114045
0.00117217
0.00120384
0.00123546
0.001267
0.00129847
0.00132986
0.00136115
0.00139232
0.00142338
0.0014543
0.00148508
0.00151569
0.00154612
0.00157636
0.00160638
0.00163617
0.00166572
0.001695
0.00172399
0.00175268
0.00178104
0.00180906
0.0018367
0.00186395
0.00189079
0.00191718
0.00194309
0.00196851
0.0019934
0.00201768
0.0020413
0.00206437
0.00208696
0.00210909
0.00213078
0.00215203
0.00217282
0.00219316
0.00221304
0.00223244
0.00225137
0.00226982
0.00228777
0.00230523
0.00232219
0.00233864
0.00235458
0.00237
0.0023849
0.00239928
0.00241312
0.00242644
0.00243921
0.00245145
0.00246315
0.00247431
0.00248492
0.00249498
0.0025045
0.00251346
0.00252187
0.00252973
0.00253704
0.00254379
0.00254998
0.00255562
0.0025607
0.00256522
0.00256919
0.00257259
0.00257544
0.00257773
0.00257946
0.00258064
0.00258126
0.00258133
0.00258084
0.00257981
0.00257823
0.0025761
0.00257343
0.00257022
0.00256647
0.0025622
0.0025574
0.00255208
0.00254624
0.0025399
0.00253307
0.00252574
0.00251793
0.00250965
0.00250092
0.00249174
0.00248212
0.00247206
0.00246153
0.00245051
0.00243885
0.00242635
0.00241267
0.00239796
0.00238249
0.00236643
0.00234991
0.002333
0.00231573
0.00229815
0.00228027
0.00226212
0.00224373
0.0022251
0.00220626
0.00218723
0.00216802
0.00214865
0.00212913
0.00210949
0.00208973
0.00206988
0.00204994
0.00202994
0.00200988
0.00198977
0.00196964
0.00194947
0.00192927
0.00190905
0.00188878
0.00186842
0.0018479
0.00182707
0.00180557
0.00178252
0.00175503
0.0017151
1.0693e-05
8.48984e-05
0.000166464
0.000228418
0.000273236
0.000305569
0.00032946
0.000348069
0.000363733
0.000378077
0.000392165
0.000406656
0.000421955
0.000438311
0.000455899
0.000474846
0.000495252
0.000517192
0.00054071
0.000565822
0.00059251
0.000620726
0.000650398
0.000681429
0.000713711
0.000747123
0.000781542
0.000816846
0.000852916
0.000889643
0.000926924
0.000964668
0.00100279
0.00104123
0.00107991
0.00111878
0.0011578
0.00119692
0.00123612
0.00127536
0.00131462
0.00135389
0.00139314
0.00143236
0.00147153
0.00151064
0.00154967
0.00158862
0.00162746
0.00166619
0.00170478
0.00174323
0.00178151
0.00181961
0.00185751
0.00189519
0.00193263
0.00196981
0.00200671
0.0020433
0.00207958
0.0021155
0.00215106
0.00218623
0.00222098
0.00225529
0.00228913
0.00232249
0.00235534
0.00238765
0.0024194
0.00245057
0.00248115
0.002511
0.00254019
0.00256878
0.0025968
0.00262428
0.00265121
0.0026776
0.00270345
0.00272874
0.00275347
0.00277762
0.0028012
0.00282419
0.00284659
0.00286839
0.00288957
0.00291015
0.0029301
0.00294942
0.00296811
0.00298616
0.00300357
0.00302033
0.00303644
0.0030519
0.0030667
0.00308083
0.0030943
0.00310711
0.00311924
0.0031307
0.00314148
0.00315159
0.00316102
0.00316978
0.00317784
0.00318523
0.00319193
0.00319795
0.00320328
0.00320793
0.00321189
0.00321516
0.00321774
0.00321964
0.00322086
0.00322139
0.00322124
0.00322041
0.0032189
0.00321672
0.00321386
0.00321034
0.00320615
0.00320131
0.00319581
0.00318967
0.00318289
0.00317548
0.00316745
0.00315881
0.00314957
0.00313974
0.00312934
0.00311837
0.00310684
0.00309475
0.00308208
0.0030688
0.00305482
0.00304
0.00302418
0.0030074
0.00298981
0.00297154
0.0029527
0.00293334
0.00291353
0.00289329
0.00287267
0.00285168
0.00283036
0.00280872
0.0027868
0.0027646
0.00274215
0.00271948
0.0026966
0.00267353
0.00265029
0.0026269
0.00260338
0.00257975
0.00255602
0.00253221
0.00250834
0.00248441
0.00246043
0.0024364
0.0024123
0.00238811
0.00236375
0.00233906
0.00231366
0.00228673
0.00225603
0.00221703
1.13762e-05
9.64233e-05
0.000188551
0.00025962
0.000312084
0.000350828
0.000380151
0.000403449
0.000423272
0.000441447
0.000459223
0.00047742
0.00049656
0.000516971
0.000538863
0.000562371
0.000587579
0.000614529
0.000643232
0.000673665
0.000705776
0.000739489
0.000774705
0.000811313
0.000849192
0.000888215
0.000928256
0.000969193
0.00101091
0.0010533
0.00109625
0.00113969
0.00118353
0.00122769
0.00127212
0.00131676
0.00136155
0.00140647
0.00145147
0.00149653
0.00154161
0.00158669
0.00163174
0.00167676
0.00172171
0.00176659
0.00181137
0.00185604
0.00190057
0.00194496
0.00198917
0.0020332
0.00207703
0.00212062
0.00216397
0.00220705
0.00224983
0.0022923
0.00233443
0.0023762
0.00241759
0.00245856
0.0024991
0.00253918
0.00257879
0.00261788
0.00265645
0.00269446
0.0027319
0.00276874
0.00280496
0.00284055
0.00287549
0.00290967
0.00294316
0.002976
0.00300822
0.00303984
0.00307085
0.00310125
0.00313104
0.00316021
0.00318876
0.00321666
0.00324392
0.00327052
0.00329646
0.00332173
0.00334631
0.00337021
0.00339341
0.00341591
0.0034377
0.00345878
0.00347913
0.00349876
0.00351766
0.00353582
0.00355323
0.00356991
0.00358583
0.003601
0.00361541
0.00362907
0.00364196
0.00365409
0.00366545
0.00367604
0.00368586
0.0036949
0.00370317
0.00371066
0.00371737
0.0037233
0.00372845
0.00373282
0.00373641
0.00373921
0.00374124
0.00374248
0.00374295
0.00374263
0.00374154
0.00373968
0.00373705
0.00373366
0.0037295
0.00372459
0.00371893
0.00371252
0.00370539
0.00369752
0.00368894
0.00367966
0.00366968
0.00365901
0.00364768
0.00363568
0.00362303
0.00360972
0.00359576
0.0035811
0.00356571
0.00354949
0.00353236
0.00351434
0.0034955
0.00347593
0.00345571
0.00343489
0.00341353
0.00339166
0.00336933
0.00334655
0.00332336
0.00329979
0.00327586
0.00325158
0.003227
0.00320212
0.00317698
0.00315159
0.00312597
0.00310016
0.00307417
0.00304802
0.00302173
0.00299533
0.00296883
0.00294225
0.0029156
0.00288889
0.00286211
0.00283523
0.0028082
0.00278088
0.00275294
0.00272366
0.00269147
0.00265405
1.23156e-05
0.000101902
0.000203634
0.000283862
0.000344124
0.000389464
0.000424425
0.000452618
0.000476779
0.000498906
0.000520407
0.000542236
0.00056502
0.00058916
0.000614901
0.000642388
0.000671696
0.000702849
0.00073583
0.000770593
0.000807063
0.000845148
0.000884737
0.000925714
0.000967953
0.00101133
0.00105572
0.001101
0.00114707
0.00119381
0.00124114
0.00128895
0.00133718
0.00138575
0.0014346
0.00148367
0.0015329
0.00158227
0.00163173
0.00168123
0.00173076
0.00178029
0.00182978
0.00187922
0.00192858
0.00197784
0.00202699
0.00207599
0.00212484
0.0021735
0.00222197
0.00227021
0.00231822
0.00236595
0.00241341
0.00246055
0.00250736
0.00255381
0.00259988
0.00264555
0.00269078
0.00273556
0.00277987
0.00282367
0.00286695
0.00290968
0.00295183
0.0029934
0.00303434
0.00307466
0.00311432
0.00315331
0.00319159
0.00322912
0.00326594
0.0033021
0.0033376
0.00337246
0.00340667
0.00344024
0.00347316
0.00350542
0.00353701
0.00356792
0.00359814
0.00362767
0.00365648
0.00368458
0.00371194
0.00373858
0.00376447
0.0037896
0.00381398
0.00383759
0.00386043
0.00388248
0.00390376
0.00392423
0.00394391
0.00396279
0.00398085
0.0039981
0.00401454
0.00403016
0.00404495
0.00405891
0.00407205
0.00408434
0.0040958
0.00410642
0.00411619
0.00412512
0.00413321
0.00414044
0.00414683
0.00415236
0.00415704
0.00416086
0.00416384
0.00416596
0.00416723
0.00416765
0.00416722
0.00416596
0.00416384
0.00416088
0.00415709
0.00415248
0.00414703
0.00414076
0.00413369
0.00412582
0.00411715
0.00410771
0.0040975
0.00408654
0.00407482
0.00406237
0.0040492
0.0040353
0.00402067
0.0040053
0.00398917
0.00397221
0.0039544
0.00393573
0.00391625
0.003896
0.00387505
0.00385345
0.00383125
0.00380847
0.00378516
0.00376135
0.00373706
0.00371232
0.00368716
0.0036616
0.00363567
0.0036094
0.0035828
0.00355591
0.00352874
0.00350133
0.00347369
0.00344586
0.00341784
0.00338968
0.00336139
0.003333
0.00330452
0.00327596
0.00324734
0.00321865
0.00318985
0.00316081
0.00313129
0.00310073
0.00306803
0.00303194
1.30997e-05
0.000104574
0.000213648
0.000301993
0.000369649
0.00042148
0.000462119
0.000495305
0.000523903
0.000550041
0.00057525
0.000600593
0.000626789
0.0006543
0.000683415
0.000714296
0.000747021
0.000781608
0.000818028
0.000856224
0.000896113
0.000937594
0.000980555
0.00102488
0.00107044
0.00111712
0.0011648
0.00121336
0.00126271
0.00131272
0.00136332
0.00141442
0.00146593
0.00151779
0.00156994
0.00162231
0.00167485
0.00172752
0.00178028
0.00183309
0.00188592
0.00193873
0.00199149
0.0020442
0.0020968
0.0021493
0.00220165
0.00225385
0.00230587
0.00235769
0.00240928
0.00246063
0.00251172
0.00256251
0.002613
0.00266315
0.00271295
0.00276237
0.00281138
0.00285996
0.00290809
0.00295574
0.00300289
0.00304951
0.00309559
0.00314109
0.00318599
0.00323029
0.00327394
0.00331695
0.00335928
0.00340094
0.00344182
0.00348198
0.00352144
0.00356023
0.00359835
0.00363582
0.00367262
0.00370876
0.00374423
0.00377902
0.00381312
0.00384651
0.00387919
0.00391115
0.00394238
0.00397285
0.00400257
0.00403153
0.00405971
0.00408711
0.00411371
0.00413951
0.0041645
0.00418868
0.00421203
0.00423456
0.00425624
0.00427707
0.00429706
0.00431619
0.00433446
0.00435186
0.0043684
0.00438406
0.00439885
0.00441275
0.00442576
0.00443789
0.00444912
0.00445946
0.0044689
0.00447744
0.00448508
0.00449181
0.00449764
0.00450256
0.00450659
0.0045097
0.0045119
0.0045132
0.00451359
0.0045131
0.00451169
0.00450939
0.00450619
0.00450211
0.00449714
0.0044913
0.0044846
0.00447704
0.00446864
0.00445939
0.00444933
0.00443844
0.00442676
0.00441428
0.00440102
0.00438698
0.00437216
0.00435656
0.00434017
0.00432296
0.00430491
0.00428603
0.00426633
0.00424586
0.00422465
0.00420275
0.0041802
0.00415703
0.00413326
0.00410895
0.0040841
0.00405876
0.00403294
0.00400667
0.00397999
0.0039529
0.00392545
0.00389766
0.00386954
0.00384114
0.00381247
0.00378357
0.00375445
0.00372516
0.0036957
0.00366612
0.00363644
0.00360669
0.00357687
0.00354701
0.00351708
0.00348701
0.00345661
0.00342546
0.0033928
0.00335792
1.37212e-05
0.000105273
0.000219543
0.000314694
0.000389049
0.000447034
0.000493208
0.00053134
0.000564362
0.000594483
0.000623318
0.000652015
0.000681366
0.000711894
0.000743927
0.000777657
0.000813175
0.000850505
0.000889622
0.000930467
0.000972958
0.00101699
0.00106247
0.00110926
0.00115726
0.00120635
0.00125641
0.00130733
0.00135902
0.00141137
0.0014643
0.00151772
0.00157155
0.00162572
0.00168018
0.00173486
0.00178971
0.00184468
0.00189973
0.00195483
0.00200994
0.00206503
0.00212007
0.00217503
0.0022299
0.00228464
0.00233923
0.00239366
0.00244791
0.00250194
0.00255575
0.00260931
0.00266259
0.00271559
0.00276827
0.00282061
0.0028726
0.0029242
0.00297539
0.00302615
0.00307645
0.00312627
0.00317558
0.00322436
0.00327259
0.00332024
0.00336729
0.00341372
0.00345951
0.00350465
0.0035491
0.00359286
0.00363587
0.00367817
0.00371979
0.00376075
0.00380105
0.00384068
0.00387966
0.00391797
0.0039556
0.00399254
0.00402879
0.00406432
0.00409913
0.0041332
0.00416652
0.00419907
0.00423086
0.00426186
0.00429206
0.00432146
0.00435005
0.00437781
0.00440474
0.00443083
0.00445607
0.00448044
0.00450395
0.00452659
0.00454834
0.0045692
0.00458917
0.00460825
0.00462642
0.00464369
0.00466004
0.00467547
0.00468998
0.00470356
0.00471621
0.00472793
0.00473872
0.00474857
0.00475748
0.00476543
0.00477244
0.00477851
0.00478364
0.00478782
0.00479104
0.00479331
0.00479463
0.00479502
0.00479445
0.00479295
0.00479051
0.00478715
0.00478286
0.00477766
0.00477154
0.00476453
0.00475663
0.00474784
0.00473819
0.00472767
0.00471631
0.00470411
0.00469109
0.00467724
0.00466258
0.0046471
0.00463081
0.00461369
0.00459574
0.00457696
0.00455737
0.004537
0.00451586
0.00449401
0.00447146
0.00444826
0.00442443
0.0044
0.004375
0.00434945
0.00432339
0.00429684
0.00426983
0.00424237
0.00421451
0.00418626
0.00415766
0.00412872
0.00409949
0.00406998
0.00404023
0.00401027
0.00398013
0.00394984
0.00391944
0.00388896
0.00385843
0.00382788
0.00379732
0.0037667
0.00373589
0.0037046
0.00367229
0.00363853
1.41995e-05
0.000104451
0.00022198
0.000322574
0.000402786
0.000466423
0.000517835
0.000560732
0.00059805
0.000632031
0.000664343
0.000696192
0.000728427
0.000761622
0.000796149
0.000832231
0.000869983
0.000909445
0.000950603
0.000993407
0.00103778
0.00108363
0.00113086
0.00117935
0.00122899
0.00127968
0.0013313
0.00138376
0.00143695
0.00149078
0.00154517
0.00160003
0.00165528
0.00171087
0.00176673
0.0018228
0.00187904
0.0019354
0.00199183
0.00204831
0.0021048
0.00216127
0.00221769
0.00227404
0.0023303
0.00238644
0.00244245
0.00249831
0.00255399
0.00260948
0.00266475
0.0027198
0.00277459
0.00282911
0.00288333
0.00293724
0.0029908
0.003044
0.00309681
0.00314921
0.00320116
0.00325265
0.00330365
0.00335412
0.00340406
0.00345342
0.0035022
0.00355036
0.00359788
0.00364476
0.00369096
0.00373646
0.00378126
0.00382539
0.00386886
0.00391169
0.00395388
0.00399542
0.0040363
0.00407653
0.00411607
0.00415493
0.0041931
0.00423054
0.00426726
0.00430324
0.00433845
0.0043729
0.00440656
0.00443943
0.00447149
0.00450273
0.00453314
0.00456271
0.00459143
0.00461929
0.00464629
0.0046724
0.00469762
0.00472194
0.00474536
0.00476786
0.00478945
0.00481011
0.00482985
0.00484865
0.00486652
0.00488344
0.0048994
0.0049144
0.00492844
0.00494153
0.00495365
0.00496482
0.004975
0.00498419
0.00499241
0.00499965
0.00500591
0.00501119
0.00501549
0.00501881
0.00502114
0.00502251
0.00502289
0.00502231
0.00502076
0.00501824
0.00501477
0.00501036
0.00500499
0.0049987
0.00499148
0.00498334
0.0049743
0.00496437
0.00495355
0.00494186
0.00492931
0.0049159
0.00490165
0.00488656
0.00487063
0.00485387
0.00483627
0.00481784
0.0047986
0.00477856
0.00475775
0.00473619
0.00471392
0.00469096
0.00466734
0.00464309
0.00461823
0.00459279
0.0045668
0.00454028
0.00451327
0.00448577
0.00445783
0.00442947
0.00440072
0.00437161
0.00434215
0.0043124
0.00428237
0.0042521
0.00422163
0.004191
0.00416024
0.00412941
0.00409853
0.00406766
0.00403681
0.00400599
0.00397511
0.00394396
0.00391216
0.00387943
1.45524e-05
0.000102462
0.000221537
0.000326223
0.000411369
0.000480043
0.000536275
0.000583638
0.000625018
0.000662651
0.000698224
0.00073298
0.000767808
0.000803325
0.000839942
0.000877915
0.000917389
0.000958424
0.00100103
0.00104516
0.00109075
0.00113773
0.001186
0.00123546
0.001286
0.00133752
0.00138992
0.00144311
0.00149698
0.00155146
0.00160645
0.0016619
0.00171771
0.00177385
0.00183024
0.00188683
0.00194359
0.00200047
0.00205744
0.00211445
0.0021715
0.00222854
0.00228556
0.00234253
0.00239945
0.00245628
0.00251301
0.00256963
0.00262611
0.00268244
0.00273861
0.00279459
0.00285035
0.0029059
0.00296119
0.0030162
0.00307092
0.00312532
0.00317936
0.00323303
0.00328629
0.00333911
0.00339147
0.00344334
0.00349469
0.00354549
0.00359571
0.00364534
0.00369435
0.00374272
0.00379042
0.00383746
0.00388387
0.00392964
0.00397479
0.00401933
0.00406324
0.00410652
0.00414916
0.00419114
0.00423247
0.00427311
0.00431305
0.00435229
0.00439079
0.00442854
0.00446554
0.00450176
0.00453719
0.00457181
0.00460562
0.00463859
0.00467073
0.00470201
0.00473244
0.00476199
0.00479065
0.00481843
0.00484529
0.00487123
0.00489624
0.00492032
0.00494346
0.00496566
0.00498692
0.00500722
0.00502658
0.00504495
0.00506234
0.00507874
0.00509416
0.00510859
0.00512204
0.0051345
0.00514595
0.0051564
0.00516585
0.00517429
0.00518173
0.00518817
0.0051936
0.00519802
0.00520144
0.00520385
0.00520527
0.00520569
0.00520512
0.00520357
0.00520103
0.00519751
0.00519303
0.00518759
0.00518119
0.00517385
0.00516558
0.00515639
0.00514628
0.00513528
0.00512339
0.00511061
0.00509697
0.00508247
0.00506711
0.0050509
0.00503385
0.00501596
0.00499726
0.00497775
0.00495745
0.0049364
0.0049146
0.0048921
0.00486891
0.00484506
0.00482057
0.00479548
0.0047698
0.00474357
0.0047168
0.00468952
0.00466177
0.00463356
0.00460493
0.0045759
0.00454651
0.00451678
0.00448676
0.00445647
0.00442595
0.00439526
0.00436442
0.00433351
0.00430256
0.00427164
0.00424078
0.00421
0.00417927
0.00414844
0.00411722
0.00408543
1.47942e-05
9.96051e-05
0.000218736
0.00032621
0.000415322
0.000488335
0.000548874
0.000600308
0.000645423
0.000686416
0.000724966
0.000762329
0.000799422
0.000836895
0.000875191
0.000914599
0.00095529
0.000997352
0.00104081
0.00108564
0.0011318
0.00117922
0.00122781
0.00127748
0.00132814
0.0013797
0.00143207
0.00148515
0.00153885
0.00159311
0.00164785
0.00170301
0.00175851
0.00181432
0.00187038
0.00192665
0.0019831
0.00203968
0.00209639
0.00215318
0.00221004
0.00226696
0.0023239
0.00238086
0.00243783
0.00249478
0.0025517
0.00260857
0.00266539
0.00272213
0.00277878
0.00283531
0.0028917
0.00294794
0.003004
0.00305985
0.00311546
0.00317081
0.00322587
0.0032806
0.00333497
0.00338894
0.0034425
0.00349559
0.0035482
0.00360028
0.00365181
0.00370276
0.00375311
0.00380283
0.00385192
0.00390043
0.00394834
0.00399568
0.00404243
0.00408859
0.00413414