/*--------------------------------*- C++ -*----------------------------------*\
| =========                 |                                                 |
| \\      /  F ield         | OpenFOAM: The Open Source CFD Toolbox           |
|  \\    /   O peration     | Version:  2412                                  |
|   \\  /    A nd           | Website:  www.openfoam.com                      |
|    \\/     M anipulation  |                                                 |
\*---------------------------------------------------------------------------*/
FoamFile
{
    version     2.0;
    format      ascii;
    arch        "LSB;label=32;scalar=64";
    class       volScalarField;
    location    "0.3";
    object      p;
}
// * * * * * * * * * * * * * * * * * * * * * * * * * * * * * * * * * * * * * //

dimensions      [0 2 -2 0 0 0 0];

internalField   nonuniform List<scalar> 
12225
(
-10.3276
-9.73524
-9.07253
-8.5161
-8.00705
-7.55062
-7.15207
-6.80108
-6.48874
-6.20947
-5.95837
-5.73094
-5.52334
-5.33221
-5.15452
-4.98675
-4.82667
-4.65979
-10.7614
-9.79342
-9.10734
-8.55708
-8.04735
-7.59087
-7.19168
-6.83929
-6.52532
-6.24435
-5.99152
-5.76236
-5.55305
-5.36025
-5.18088
-5.01156
-4.84947
-4.69134
-10.9418
-9.82769
-9.14909
-8.60795
-8.09775
-7.64214
-7.2431
-6.88964
-6.57413
-6.29138
-6.0366
-5.80543
-5.59409
-5.39929
-5.21798
-5.047
-4.8835
-4.72243
-10.9657
-9.84341
-9.17377
-8.6419
-8.1344
-7.68165
-7.28448
-6.93158
-6.61591
-6.33256
-6.07686
-5.84458
-5.63205
-5.43608
-5.25372
-5.08222
-4.91834
-4.76123
-10.8956
-9.83812
-9.17405
-8.65268
-8.15222
-7.7044
-7.31078
-6.96009
-6.64572
-6.36305
-6.10759
-5.87528
-5.66259
-5.4665
-5.28421
-5.11352
-4.95107
-4.80184
-10.7538
-9.80498
-9.15057
-8.64182
-8.153
-7.71237
-7.32391
-6.97692
-6.66511
-6.38422
-6.12999
-5.89856
-5.68661
-5.49131
-5.31011
-5.14132
-4.98177
-4.84108
-10.5511
-9.73854
-9.10432
-8.61014
-8.13742
-7.70677
-7.3252
-6.98342
-6.67543
-6.39735
-6.14528
-5.9156
-5.70521
-5.51154
-5.33232
-5.16633
-5.01064
-4.87822
-10.2982
-9.63621
-9.03614
-8.55818
-8.1054
-7.68797
-7.31526
-6.98024
-6.67739
-6.40322
-6.15424
-5.92717
-5.71917
-5.52794
-5.35152
-5.18907
-5.03788
-4.91333
-10.0057
-9.49767
-8.94716
-8.48761
-8.05747
-7.65657
-7.29482
-6.96816
-6.67179
-6.40265
-6.15773
-5.93414
-5.72935
-5.54134
-5.36845
-5.21015
-5.06388
-4.94664
-9.68496
-9.32492
-8.83873
-8.40127
-7.99532
-7.61388
-7.26521
-6.94839
-6.65979
-6.39677
-6.15686
-5.93759
-5.73678
-5.55273
-5.384
-5.23032
-5.08919
-4.97864
-9.34805
-9.12273
-8.71251
-8.30271
-7.9219
-7.56213
-7.22852
-6.92283
-6.64307
-6.38715
-6.1531
-5.93891
-5.74278
-5.56328
-5.39924
-5.2505
-5.1145
-5.01018
-9.03605
-8.91694
-8.58276
-8.20452
-7.84765
-7.50923
-7.19108
-6.89661
-6.6257
-6.37699
-6.14893
-5.93995
-5.74859
-5.5737
-5.41424
-5.27023
-5.13871
-5.03999
-8.74103
-8.70255
-8.4442
-8.10228
-7.76962
-7.45319
-7.1518
-6.86934
-6.60777
-6.36671
-6.14506
-5.94166
-5.75539
-5.58533
-5.43063
-5.29128
-5.16467
-5.06927
-8.43394
-8.45809
-8.27859
-7.98275
-7.67883
-7.38795
-7.10728
-6.83987
-6.58965
-6.3578
-6.14388
-5.94716
-5.7669
-5.60246
-5.45317
-5.31902
-5.19773
-5.10482
-8.13681
-8.20382
-8.09597
-7.852
-7.58053
-7.31723
-7.06051
-6.81146
-6.57505
-6.35422
-6.1495
-5.96064
-5.78729
-5.62912
-5.48568
-5.35698
-5.24092
-5.15013
-7.87836
-7.97171
-7.92151
-7.72858
-7.49044
-7.25351
-7.02055
-6.79101
-6.56974
-6.36109
-6.16666
-5.98665
-5.82102
-5.66967
-5.53233
-5.40908
-5.29799
-5.20874
-7.6907
-7.79879
-7.79007
-7.64125
-7.4345
-7.22094
-7.0085
-6.79636
-6.58872
-6.39084
-6.20537
-6.03304
-5.87401
-5.72839
-5.59595
-5.4767
-5.36902
-5.2789
-7.61407
-7.72639
-7.7389
-7.61727
-7.43229
-7.23537
-7.03753
-6.83829
-6.64118
-6.45167
-6.27301
-6.10626
-5.95162
-5.80911
-5.67862
-5.55995
-5.45206
-5.35627
-7.71337
-7.82039
-7.82673
-7.70008
-7.51186
-7.31312
-7.11447
-6.91522
-6.71878
-6.53035
-6.35297
-6.18747
-6.03381
-5.89182
-5.76115
-5.64112
-5.53146
-5.42902
-7.98957
-8.08399
-8.05057
-7.879
-7.65743
-7.43471
-7.21632
-7.00097
-6.79263
-6.59582
-6.41242
-6.24248
-6.08554
-5.94103
-5.80824
-5.68608
-5.57431
-5.46726
-8.38294
-8.44106
-8.33867
-8.10424
-7.83991
-7.58495
-7.33883
-7.10104
-6.87596
-6.66669
-6.47368
-6.29623
-6.13349
-5.9845
-5.8483
-5.72365
-5.61013
-5.50177
-8.88332
-8.86306
-8.65485
-8.34506
-8.03302
-7.73903
-7.45934
-7.19585
-6.95202
-6.72863
-6.52468
-6.33879
-6.16959
-6.01567
-5.87571
-5.74827
-5.63258
-5.52295
-9.44734
-9.29176
-8.94786
-8.56499
-8.20837
-7.87485
-7.56285
-7.27622
-7.01565
-6.7794
-6.56543
-6.37179
-6.19659
-6.038
-5.89437
-5.76411
-5.64618
-5.53547
-10.0118
-9.66577
-9.18267
-8.74487
-8.35093
-7.98141
-7.64198
-7.3363
-7.0615
-6.8141
-6.59146
-6.39113
-6.21073
-6.04806
-5.90121
-5.76843
-5.64845
-5.53685
-10.5158
-9.94728
-9.35163
-8.87982
-8.45323
-8.05275
-7.69192
-7.37144
-7.0853
-6.82912
-6.5998
-6.39439
-6.21005
-6.04431
-5.89507
-5.76041
-5.63893
-5.52685
-10.9173
-10.1249
-9.45838
-8.96624
-8.51112
-8.08719
-7.71146
-7.3804
-7.08611
-6.82378
-6.5899
-6.38105
-6.19412
-6.02641
-5.87566
-5.73987
-5.6175
-5.50539
-11.1886
-10.2084
-9.50861
-9.00191
-8.52554
-8.08675
-7.70151
-7.36348
-7.06402
-6.79798
-6.56147
-6.35077
-6.16254
-5.99395
-5.84263
-5.70648
-5.58392
-5.47232
-11.2958
-10.2238
-9.50926
-8.98619
-8.4978
-8.05145
-7.66062
-7.31879
-7.017
-6.7496
-6.5124
-6.3015
-6.11341
-5.94518
-5.79435
-5.65879
-5.53683
-5.42642
-11.1632
-10.194
-9.47424
-8.92856
-8.43525
-7.98658
-7.59341
-7.25074
-6.94928
-6.68278
-6.4468
-6.23735
-6.0508
-5.88414
-5.73487
-5.60082
-5.48025
-5.37141
-10.632
-10.1017
-9.43166
-8.87165
-8.37659
-7.92768
-7.53406
-7.19201
-6.89189
-6.62694
-6.39259
-6.18478
-5.99986
-5.83477
-5.68697
-5.55433
-5.43498
-5.32712
-4.71705
-4.71672
-4.71761
-4.71955
-4.72203
-4.72472
-4.72749
-4.73036
-4.73342
-4.73672
-4.74034
-4.74437
-4.7489
-4.75403
-4.75987
-4.76651
-4.77408
-4.78269
-4.79246
-4.80353
-4.81602
-4.83004
-4.84568
-4.86299
-4.88202
-4.90274
-4.92511
-4.94905
-4.97444
-5.00114
-5.02893
-5.05752
-5.08668
-5.11619
-5.14582
-5.17537
-5.20462
-5.23338
-5.26144
-5.28864
-5.3148
-5.33976
-5.36336
-5.38546
-5.40591
-5.42459
-5.44136
-5.45609
-5.46867
-5.47898
-5.4869
-5.49231
-5.49511
-5.4952
-5.49245
-5.48678
-5.47809
-5.46629
-5.45127
-5.43297
-5.4113
-5.38618
-5.35755
-5.32534
-5.28949
-5.24996
-5.20671
-5.15969
-5.10889
-5.05427
-4.99585
-4.93365
-4.86773
-4.79812
-4.72471
-4.64734
-4.56594
-4.48068
-4.39162
-4.29885
-4.2024
-4.10233
-3.99869
-3.89155
-3.78095
-3.66698
-3.5497
-3.4292
-3.30555
-3.17885
-3.04919
-2.91667
-2.78139
-2.64346
-2.50299
-2.36008
-2.21486
-2.06745
-1.91797
-1.76655
-1.61332
-1.4584
-1.30193
-1.14405
-0.984895
-0.824602
-0.663312
-0.501169
-0.338313
-0.17489
-0.0110434
0.153082
0.317343
0.481593
0.64569
0.80949
0.97285
1.13563
1.29769
1.4589
1.61912
1.77821
1.93605
2.09251
2.24747
2.40081
2.55242
2.70218
2.84998
2.99574
3.13935
3.28072
3.41977
3.55642
3.6906
3.82223
3.95127
4.07765
4.20133
4.32228
4.44046
4.55586
4.66847
4.77825
4.88516
4.98912
5.09012
5.18818
5.28333
5.37561
5.46504
5.55164
5.63544
5.71647
5.79476
5.87035
5.94326
6.01355
6.08124
6.14637
6.20899
6.26913
6.32684
6.38215
6.43511
6.48576
6.53415
6.58033
6.62437
6.66632
6.7063
6.74442
6.78089
6.81598
6.85019
6.88435
6.92036
6.96135
7.01915
7.09421
-4.71687
-4.71708
-4.71804
-4.71975
-4.7217
-4.72353
-4.72511
-4.72649
-4.72786
-4.72945
-4.73144
-4.73391
-4.73696
-4.74063
-4.74502
-4.75025
-4.75645
-4.76378
-4.77239
-4.78244
-4.79409
-4.80746
-4.82267
-4.83976
-4.85876
-4.87963
-4.90229
-4.92661
-4.95242
-4.97953
-5.00769
-5.03665
-5.06616
-5.096
-5.12592
-5.15572
-5.18519
-5.21413
-5.24237
-5.26972
-5.29603
-5.32115
-5.34493
-5.36722
-5.3879
-5.40684
-5.42391
-5.439
-5.45197
-5.46271
-5.47111
-5.47705
-5.48043
-5.48114
-5.47906
-5.47411
-5.46618
-5.45518
-5.44101
-5.4236
-5.40286
-5.37871
-5.35109
-5.31993
-5.28518
-5.24678
-5.20469
-5.15887
-5.1093
-5.05594
-4.99877
-4.93777
-4.87289
-4.80408
-4.73123
-4.6545
-4.57412
-4.49004
-4.40224
-4.31073
-4.21556
-4.11677
-4.01441
-3.90853
-3.7992
-3.68647
-3.57042
-3.45114
-3.32869
-3.20317
-3.07468
-2.94329
-2.80913
-2.67229
-2.53288
-2.39101
-2.24681
-2.10038
-1.95185
-1.80135
-1.649
-1.49494
-1.3393
-1.18221
-1.0238
-0.864226
-0.703618
-0.542117
-0.379868
-0.217012
-0.053694
0.109942
0.273753
0.437593
0.601321
0.764791
0.927864
1.0904
1.25225
1.41329
1.57338
1.73239
1.89019
2.04664
2.20164
2.35505
2.50677
2.65668
2.80468
2.95066
3.09453
3.2362
3.37558
3.51259
3.64716
3.77921
3.9087
4.03557
4.15976
4.28125
4.40001
4.516
4.62922
4.73963
4.84717
4.95177
5.05346
5.15222
5.24809
5.34109
5.43124
5.51857
5.6031
5.68486
5.76388
5.84019
5.91383
5.98483
6.05323
6.11907
6.18238
6.2432
6.30158
6.35756
6.41117
6.46246
6.51149
6.5583
6.60295
6.64553
6.68614
6.72492
6.76208
6.79794
6.83302
6.86817
6.90532
6.94659
7.00258
7.06877
-4.71124
-4.71288
-4.71498
-4.71711
-4.71881
-4.71999
-4.72077
-4.72135
-4.72198
-4.72284
-4.72409
-4.72584
-4.72823
-4.73136
-4.73538
-4.74043
-4.74667
-4.75425
-4.76332
-4.77402
-4.78643
-4.80063
-4.81666
-4.83451
-4.85413
-4.87544
-4.89832
-4.92262
-4.94818
-4.9748
-5.00229
-5.03042
-5.05901
-5.08785
-5.11673
-5.14548
-5.17391
-5.20185
-5.22914
-5.25562
-5.28113
-5.30553
-5.32869
-5.35045
-5.3707
-5.38931
-5.40614
-5.42107
-5.43399
-5.44477
-5.4533
-5.45945
-5.46313
-5.46422
-5.4626
-5.45819
-5.45087
-5.44055
-5.42713
-5.41053
-5.39067
-5.36747
-5.34084
-5.31074
-5.27709
-5.23984
-5.19894
-5.15436
-5.10605
-5.05399
-4.99814
-4.93849
-4.87498
-4.80759
-4.73636
-4.66128
-4.58244
-4.49987
-4.41358
-4.32359
-4.22995
-4.1327
-4.03187
-3.92752
-3.8197
-3.70849
-3.59395
-3.47616
-3.35519
-3.23113
-3.10408
-2.97412
-2.84136
-2.70589
-2.56783
-2.42728
-2.28437
-2.1392
-1.9919
-1.84259
-1.6914
-1.53846
-1.3839
-1.22785
-1.07045
-0.911835
-0.752145
-0.591519
-0.4301
-0.268028
-0.105448
0.0574984
0.220667
0.383914
0.547097
0.710074
0.872702
1.03484
1.19636
1.35711
1.51696
1.67578
1.83344
1.98981
2.14477
2.2982
2.44998
2.60001
2.74817
2.89437
3.0385
3.18047
3.3202
3.4576
3.59261
3.72515
3.85515
3.98258
4.10737
4.22948
4.34887
4.46552
4.5794
4.69048
4.79875
4.90417
5.00672
5.1064
5.2032
5.29714
5.38823
5.47651
5.56198
5.64469
5.72465
5.8019
5.87647
5.94839
6.01771
6.08444
6.14864
6.21034
6.26958
6.3264
6.38084
6.43296
6.48278
6.53039
6.57583
6.6192
6.6606
6.70019
6.73819
6.77493
6.81098
6.84717
6.88532
6.92672
6.98059
7.0338
-4.69997
-4.7036
-4.70751
-4.71079
-4.71307
-4.71451
-4.71545
-4.71617
-4.71693
-4.71795
-4.7194
-4.72144
-4.72423
-4.72789
-4.73258
-4.73845
-4.74562
-4.75422
-4.76436
-4.77612
-4.78955
-4.80465
-4.82143
-4.83984
-4.85981
-4.88123
-4.904
-4.92798
-4.95302
-4.97896
-5.00563
-5.03285
-5.06046
-5.08828
-5.11614
-5.14387
-5.17131
-5.19831
-5.22471
-5.25036
-5.27512
-5.29885
-5.32141
-5.34267
-5.36249
-5.38075
-5.39731
-5.41206
-5.42487
-5.43562
-5.44419
-5.45047
-5.45433
-5.45567
-5.45437
-5.45034
-5.44345
-5.43363
-5.42076
-5.40477
-5.38556
-5.36305
-5.33717
-5.30785
-5.27502
-5.23863
-5.19863
-5.15496
-5.10758
-5.05647
-5.0016
-4.94293
-4.88044
-4.81411
-4.74399
-4.67009
-4.59244
-4.51105
-4.42596
-4.33718
-4.24475
-4.14871
-4.0491
-3.94597
-3.83937
-3.72937
-3.61604
-3.49945
-3.37967
-3.25679
-3.13091
-3.0021
-2.87047
-2.73613
-2.59917
-2.4597
-2.31785
-2.17372
-2.02743
-1.87911
-1.72887
-1.57686
-1.4232
-1.26802
-1.11146
-0.953645
-0.794724
-0.634833
-0.474112
-0.312702
-0.150746
0.0116144
0.174236
0.336977
0.499694
0.662245
0.82449
0.986289
1.1475
1.308
1.46763
1.62628
1.78381
1.9401
2.09501
2.24844
2.40027
2.55038
2.69866
2.84502
2.98936
3.13157
3.27158
3.40931
3.54467
3.6776
3.80803
3.93591
4.06118
4.18381
4.30376
4.42098
4.53544
4.64711
4.75595
4.862
4.96521
5.06558
5.1631
5.25778
5.34963
5.43866
5.5249
5.60838
5.68911
5.76713
5.84247
5.91516
5.98523
6.05272
6.11766
6.18009
6.24006
6.29759
6.35274
6.40555
6.45606
6.50433
6.55044
6.59447
6.63653
6.67678
6.71544
6.75285
6.78954
6.82623
6.8645
6.90479
6.95441
6.99532
-4.68549
-4.69124
-4.69766
-4.70281
-4.7063
-4.70864
-4.71036
-4.71181
-4.7133
-4.71507
-4.71735
-4.7203
-4.72408
-4.72885
-4.73472
-4.74182
-4.75026
-4.76013
-4.77148
-4.78437
-4.7988
-4.81476
-4.83222
-4.85112
-4.87138
-4.89291
-4.91559
-4.93931
-4.96393
-4.98931
-5.0153
-5.04177
-5.06856
-5.09551
-5.12248
-5.14933
-5.1759
-5.20204
-5.22763
-5.25252
-5.27657
-5.29964
-5.32161
-5.34234
-5.3617
-5.37956
-5.3958
-5.41028
-5.42289
-5.43351
-5.442
-5.44826
-5.45216
-5.45359
-5.45243
-5.44859
-5.44195
-5.43241
-5.41987
-5.40424
-5.38544
-5.36338
-5.33798
-5.30917
-5.27688
-5.24106
-5.20165
-5.1586
-5.11188
-5.06143
-5.00725
-4.9493
-4.88756
-4.82203
-4.75272
-4.67965
-4.60284
-4.5223
-4.43806
-4.35013
-4.25856
-4.16338
-4.06464
-3.96237
-3.85664
-3.74751
-3.63504
-3.51931
-3.40039
-3.27837
-3.15333
-3.02536
-2.89456
-2.76103
-2.62487
-2.4862
-2.34512
-2.20175
-2.05621
-1.90861
-1.75909
-1.60777
-1.45477
-1.30024
-1.1443
-0.98709
-0.828746
-0.669407
-0.509211
-0.3483
-0.186815
-0.0248985
0.137308
0.299664
0.462025
0.624251
0.786201
0.947736
1.10872
1.26901
1.42848
1.58699
1.74441
1.90063
2.0555
2.20892
2.36077
2.51094
2.65931
2.80578
2.95026
3.09266
3.23287
3.37083
3.50645
3.63967
3.77042
3.89864
4.02429
4.1473
4.26765
4.38529
4.50017
4.61225
4.72152
4.82799
4.93166
5.0325
5.13052
5.22572
5.31809
5.40767
5.49446
5.57849
5.65979
5.73838
5.81428
5.88754
5.95817
6.02623
6.09173
6.15472
6.21524
6.27332
6.32901
6.38234
6.43338
6.48217
6.52878
6.5733
6.61584
6.65655
6.69565
6.73343
6.77037
6.80704
6.84466
6.88296
6.9278
6.95825
-4.67156
-4.67922
-4.6881
-4.69526
-4.70025
-4.70385
-4.7067
-4.70925
-4.71183
-4.71474
-4.71819
-4.72238
-4.72746
-4.73357
-4.74081
-4.74929
-4.75907
-4.77022
-4.78276
-4.79672
-4.81208
-4.82881
-4.84687
-4.86619
-4.8867
-4.90831
-4.9309
-4.95439
-4.97864
-5.00354
-5.02897
-5.05479
-5.08087
-5.10709
-5.1333
-5.15938
-5.18519
-5.21059
-5.23547
-5.25967
-5.28308
-5.30557
-5.32699
-5.34722
-5.36614
-5.38361
-5.39951
-5.41371
-5.42609
-5.43651
-5.44487
-5.45103
-5.45488
-5.4563
-5.45517
-5.4514
-5.44486
-5.43545
-5.42309
-5.40766
-5.38909
-5.36728
-5.34216
-5.31366
-5.2817
-5.24623
-5.2072
-5.16455
-5.11824
-5.06824
-5.01451
-4.95704
-4.89582
-4.83083
-4.76208
-4.68958
-4.61334
-4.53337
-4.44971
-4.36238
-4.2714
-4.17681
-4.07866
-3.977
-3.87188
-3.76335
-3.6515
-3.53637
-3.41806
-3.29664
-3.17221
-3.04484
-2.91464
-2.7817
-2.64613
-2.50804
-2.36753
-2.22473
-2.07973
-1.93268
-1.78369
-1.63289
-1.4804
-1.32635
-1.17089
-1.01414
-0.856234
-0.697318
-0.537529
-0.377005
-0.215888
-0.0543184
0.107562
0.269611
0.431689
0.593653
0.755364
0.916683
1.07747
1.23759
1.39692
1.55531
1.71263
1.86877
2.0236
2.177
2.32884
2.47903
2.62745
2.77399
2.91857
3.06108
3.20143
3.33955
3.47536
3.60879
3.73976
3.86823
3.99414
4.11743
4.23806
4.35598
4.47116
4.58355
4.69314
4.79993
4.90392
5.00511
5.10349
5.19907
5.29184
5.38182
5.46902
5.55348
5.6352
5.71422
5.79056
5.86426
5.93533
6.00383
6.06977
6.1332
6.19415
6.25266
6.30878
6.36253
6.41397
6.46317
6.51017
6.55506
6.59794
6.63897
6.67831
6.71625
6.75315
6.78942
6.82594
6.8619
6.90229
6.92398
-4.66149
-4.67036
-4.68112
-4.69005
-4.69653
-4.70144
-4.70552
-4.70928
-4.71308
-4.71723
-4.72195
-4.72744
-4.73385
-4.74129
-4.74985
-4.75962
-4.77063
-4.78292
-4.79651
-4.81139
-4.82753
-4.8449
-4.86345
-4.88312
-4.90383
-4.92549
-4.94802
-4.97132
-4.99529
-5.01982
-5.04479
-5.0701
-5.09563
-5.12126
-5.14687
-5.17234
-5.19753
-5.22234
-5.24663
-5.27028
-5.29315
-5.31514
-5.33609
-5.3559
-5.37443
-5.39155
-5.40713
-5.42105
-5.43319
-5.44341
-5.45159
-5.45761
-5.46134
-5.46268
-5.46151
-5.4577
-5.45116
-5.44178
-5.42945
-5.41409
-5.3956
-5.3739
-5.3489
-5.32054
-5.28874
-5.25345
-5.2146
-5.17216
-5.12608
-5.07633
-5.02287
-4.96568
-4.90477
-4.8401
-4.77169
-4.69954
-4.62366
-4.54406
-4.46076
-4.3738
-4.2832
-4.18901
-4.09125
-3.98998
-3.88526
-3.77715
-3.6657
-3.551
-3.4331
-3.31211
-3.1881
-3.06116
-2.93138
-2.79887
-2.66373
-2.52606
-2.38598
-2.24358
-2.09901
-1.95236
-1.80377
-1.65336
-1.50126
-1.34759
-1.1925
-1.03611
-0.878554
-0.719975
-0.56051
-0.400299
-0.239481
-0.0781965
0.083413
0.245207
0.407045
0.568785
0.730288
0.891416
1.05203
1.212
1.37118
1.52945
1.68667
1.84273
1.99749
2.15084
2.30266
2.45283
2.60126
2.74783
2.89244
3.03502
3.17546
3.31368
3.4496
3.58316
3.71429
3.84292
3.96899
4.09247
4.21329
4.33142
4.44681
4.55942
4.66924
4.77627
4.88052
4.98197
5.08063
5.17649
5.26955
5.35984
5.44737
5.53215
5.61421
5.69357
5.77025
5.84429
5.91572
5.98457
6.05086
6.11465
6.17595
6.23481
6.29126
6.34535
6.39713
6.44664
6.49394
6.53911
6.58224
6.62345
6.66291
6.70082
6.73747
6.7731
6.80829
6.84183
6.87827
6.89262
-4.65683
-4.66621
-4.67802
-4.68822
-4.69593
-4.702
-4.70722
-4.71213
-4.71708
-4.7224
-4.7283
-4.73498
-4.74257
-4.75117
-4.76087
-4.77172
-4.78376
-4.79699
-4.81142
-4.82704
-4.84381
-4.86169
-4.88063
-4.90057
-4.92145
-4.94317
-4.96566
-4.98884
-5.0126
-5.03686
-5.06151
-5.08645
-5.11157
-5.13677
-5.16192
-5.18693
-5.21166
-5.23601
-5.25985
-5.28306
-5.30552
-5.32711
-5.34769
-5.36714
-5.38534
-5.40216
-5.41746
-5.43113
-5.44303
-5.45304
-5.46103
-5.46688
-5.47047
-5.47167
-5.47038
-5.46647
-5.45984
-5.45038
-5.438
-5.42259
-5.40407
-5.38234
-5.35733
-5.32897
-5.29719
-5.26193
-5.22313
-5.18074
-5.13473
-5.08506
-5.03171
-4.97465
-4.91387
-4.84936
-4.78111
-4.70913
-4.63343
-4.55402
-4.47093
-4.38417
-4.29378
-4.1998
-4.10228
-4.00125
-3.89677
-3.78891
-3.67772
-3.56328
-3.44567
-3.32495
-3.20123
-3.07458
-2.9451
-2.81289
-2.67805
-2.54069
-2.40091
-2.25883
-2.11456
-1.96822
-1.81994
-1.66983
-1.51803
-1.36466
-1.20986
-1.05375
-0.896482
-0.738177
-0.578979
-0.419026
-0.258458
-0.0974153
0.0639624
0.225535
0.387163
0.548704
0.710019
0.87097
1.03142
1.19124
1.35028
1.50842
1.66554
1.82149
1.97617
2.12944
2.2812
2.43134
2.57973
2.72629
2.87091
3.0135
3.15397
3.29224
3.42822
3.56185
3.69306
3.82178
3.94797
4.07156
4.1925
4.31076
4.42629
4.53906
4.64905
4.75626
4.86069
4.96233
5.06119
5.15726
5.25055
5.34107
5.42884
5.51387
5.59619
5.67581
5.75276
5.82708
5.89879
5.96791
6.03449
6.09856
6.16015
6.21929
6.27602
6.33039
6.38242
6.43218
6.47971
6.52508
6.56837
6.60968
6.64914
6.68689
6.72313
6.75796
6.79171
6.82287
6.8558
6.86403
-4.65785
-4.66711
-4.67919
-4.69004
-4.69858
-4.70553
-4.71168
-4.71753
-4.72346
-4.72976
-4.73664
-4.7443
-4.75285
-4.76239
-4.77298
-4.78468
-4.7975
-4.81145
-4.82653
-4.8427
-4.85994
-4.87821
-4.89745
-4.91761
-4.93862
-4.9604
-4.98288
-5.00599
-5.02963
-5.05371
-5.07814
-5.10283
-5.12767
-5.15257
-5.17742
-5.2021
-5.22651
-5.25053
-5.27405
-5.29694
-5.3191
-5.34038
-5.36068
-5.37986
-5.39779
-5.41436
-5.42942
-5.44286
-5.45454
-5.46434
-5.47213
-5.47779
-5.48119
-5.48222
-5.48075
-5.47668
-5.46989
-5.46029
-5.44775
-5.43221
-5.41355
-5.39169
-5.36657
-5.33809
-5.30621
-5.27085
-5.23197
-5.18952
-5.14345
-5.09374
-5.04036
-4.98329
-4.92251
-4.85801
-4.78979
-4.71785
-4.64219
-4.56284
-4.47981
-4.39312
-4.30282
-4.20894
-4.11151
-4.0106
-3.90625
-3.79852
-3.68748
-3.5732
-3.45575
-3.33521
-3.21167
-3.08521
-2.95594
-2.82394
-2.68931
-2.55217
-2.41262
-2.27077
-2.12673
-1.98063
-1.83259
-1.68272
-1.53116
-1.37803
-1.22347
-1.0676
-0.910565
-0.752492
-0.593521
-0.433792
-0.273443
-0.112614
0.0485559
0.209928
0.371361
0.532716
0.693852
0.854633
1.01492
1.17458
1.33348
1.49149
1.64847
1.80432
1.95889
2.11207
2.26375
2.41381
2.56215
2.70866
2.85324
2.9958
3.13626
3.27452
3.41051
3.54416
3.6754
3.80416
3.93039
4.05404
4.17505
4.29338
4.409
4.52186
4.63196
4.73929
4.84384
4.94562
5.04461
5.14084
5.23429
5.32498
5.41293
5.49815
5.58066
5.66049
5.73765
5.81218
5.88411
5.95346
6.02027
6.08456
6.14638
6.20575
6.26271
6.31729
6.36953
6.41948
6.46718
6.51269
6.55607
6.5974
6.63676
6.67425
6.70998
6.7439
6.77617
6.80505
6.83491
6.83801
-4.66392
-4.67258
-4.68426
-4.69517
-4.70407
-4.71157
-4.71835
-4.72489
-4.73155
-4.73859
-4.74622
-4.7546
-4.76387
-4.77409
-4.78534
-4.79765
-4.81104
-4.8255
-4.84102
-4.85759
-4.87517
-4.89372
-4.91318
-4.93349
-4.95461
-4.97645
-4.99895
-5.02202
-5.04559
-5.06958
-5.09389
-5.11843
-5.14311
-5.16783
-5.19249
-5.21697
-5.24117
-5.26499
-5.28829
-5.31098
-5.33292
-5.354
-5.37408
-5.39305
-5.41078
-5.42713
-5.44199
-5.45522
-5.46669
-5.47628
-5.48386
-5.4893
-5.49249
-5.4933
-5.49161
-5.48732
-5.48031
-5.47048
-5.45772
-5.44195
-5.42307
-5.401
-5.37566
-5.34698
-5.3149
-5.27935
-5.24029
-5.19766
-5.15144
-5.10159
-5.04808
-4.99089
-4.93002
-4.86543
-4.79713
-4.72512
-4.6494
-4.57
-4.48694
-4.40023
-4.30992
-4.21603
-4.11862
-4.01774
-3.91343
-3.80575
-3.69478
-3.58058
-3.46322
-3.34279
-3.21936
-3.09304
-2.9639
-2.83205
-2.69759
-2.56061
-2.42124
-2.27957
-2.13572
-1.98981
-1.84196
-1.6923
-1.54094
-1.38802
-1.23367
-1.07801
-0.921184
-0.76332
-0.604559
-0.445036
-0.284892
-0.124264
0.0367078
0.197883
0.359124
0.52029
0.681244
0.841848
1.00197
1.16146
1.3202
1.47806
1.63491
1.79061
1.94505
2.09812
2.24969
2.39964
2.54789
2.69431
2.83882
2.98132
3.12172
3.25993
3.39589
3.5295
3.66072
3.78947
3.9157
4.03935
4.16038
4.27874
4.39439
4.5073
4.61746
4.72485
4.82948
4.93134
5.03043
5.12675
5.22031
5.31113
5.3992
5.48456
5.56722
5.64719
5.72452
5.79922
5.87132
5.94085
6.00783
6.07231
6.13432
6.19387
6.25101
6.30577
6.35818
6.40828
6.4561
6.5017
6.54511
6.58638
6.62558
6.66273
6.69787
6.73083
6.76163
6.78838
6.81553
6.81437
-4.67388
-4.6816
-4.69236
-4.7028
-4.71165
-4.71932
-4.72643
-4.73339
-4.74052
-4.74805
-4.75618
-4.76507
-4.77481
-4.78549
-4.79717
-4.80988
-4.82363
-4.83842
-4.85424
-4.87107
-4.88886
-4.90759
-4.92719
-4.94763
-4.96882
-4.99072
-5.01325
-5.03633
-5.05989
-5.08385
-5.10811
-5.1326
-5.1572
-5.18184
-5.2064
-5.23079
-5.25488
-5.27858
-5.30177
-5.32432
-5.34612
-5.36705
-5.38699
-5.40579
-5.42335
-5.43952
-5.45418
-5.46721
-5.47847
-5.48783
-5.49517
-5.50037
-5.5033
-5.50385
-5.50189
-5.49732
-5.49003
-5.47991
-5.46686
-5.4508
-5.43162
-5.40926
-5.38363
-5.35467
-5.32231
-5.28649
-5.24717
-5.2043
-5.15785
-5.10778
-5.05407
-4.9967
-4.93565
-4.87089
-4.80244
-4.73028
-4.65444
-4.57492
-4.49175
-4.40496
-4.31457
-4.22063
-4.12318
-4.02227
-3.91795
-3.81028
-3.69933
-3.58516
-3.46786
-3.34749
-3.22415
-3.09792
-2.96889
-2.83715
-2.70282
-2.56599
-2.42676
-2.28525
-2.14157
-1.99584
-1.84817
-1.69869
-1.54753
-1.3948
-1.24065
-1.08519
-0.928571
-0.770917
-0.612364
-0.453051
-0.293115
-0.132694
0.0280725
0.189045
0.350083
0.511051
0.67181
0.832223
0.992153
1.15147
1.31003
1.46771
1.62439
1.77993
1.93422
2.08713
2.23856
2.38838
2.53649
2.6828
2.82719
2.96958
3.10988
3.24801
3.38388
3.51742
3.64858
3.77727
3.90345
4.02706
4.14806
4.26639
4.38203
4.49495
4.60512
4.71254
4.8172
4.91909
5.01823
5.11461
5.20824
5.29913
5.38729
5.47274
5.5555
5.63559
5.71304
5.78786
5.8601
5.92977
5.9969
6.06153
6.12368
6.18339
6.24068
6.29558
6.34812
6.39834
6.44625
6.49189
6.53528
6.57646
6.61544
6.6522
6.68669
6.71868
6.74806
6.77283
6.7976
6.79289
-4.68632
-4.69289
-4.70237
-4.71193
-4.72034
-4.72788
-4.73503
-4.74214
-4.74949
-4.75729
-4.76571
-4.77487
-4.78489
-4.79584
-4.80777
-4.8207
-4.83465
-4.84962
-4.86561
-4.88257
-4.90049
-4.91932
-4.93902
-4.95953
-4.98079
-5.00274
-5.02531
-5.04843
-5.07201
-5.09598
-5.12026
-5.14474
-5.16935
-5.19397
-5.21851
-5.24286
-5.26692
-5.29056
-5.31368
-5.33616
-5.35787
-5.37868
-5.39849
-5.41715
-5.43453
-5.45052
-5.46499
-5.47779
-5.48881
-5.49791
-5.50498
-5.50989
-5.51252
-5.51275
-5.51046
-5.50556
-5.49792
-5.48745
-5.47405
-5.45763
-5.4381
-5.41538
-5.38941
-5.36011
-5.32741
-5.29127
-5.25164
-5.20848
-5.16175
-5.11142
-5.05747
-4.99986
-4.93858
-4.87362
-4.80496
-4.73262
-4.65661
-4.57694
-4.49364
-4.40672
-4.31624
-4.22221
-4.1247
-4.02374
-3.91938
-3.8117
-3.70076
-3.58662
-3.46935
-3.34904
-3.22577
-3.09963
-2.9707
-2.83908
-2.70487
-2.56818
-2.4291
-2.28775
-2.14424
-1.99869
-1.85121
-1.70193
-1.55097
-1.39845
-1.24451
-1.08926
-0.93286
-0.775426
-0.617096
-0.458007
-0.298295
-0.138099
0.0224425
0.18319
0.344006
0.504751
0.665289
0.825484
0.985199
1.1443
1.30265
1.46013
1.61661
1.77195
1.92605
2.07878
2.23002
2.37967
2.52761
2.67375
2.81799
2.96024
3.1004
3.23839
3.37414
3.50756
3.63861
3.7672
3.89329
4.01681
4.13773
4.25601
4.37159
4.48447
4.59461
4.70201
4.80666
4.90856
5.00771
5.10411
5.19776
5.28869
5.3769
5.46241
5.54524
5.62541
5.70294
5.77786
5.8502
5.91998
5.98723
6.05198
6.11426
6.17409
6.23151
6.28652
6.33917
6.38947
6.43743
6.48309
6.52644
6.56748
6.6062
6.64253
6.67636
6.70738
6.7354
6.75837
6.78102
6.77338
-4.69978
-4.70512
-4.7131
-4.72147
-4.72916
-4.7363
-4.74324
-4.75028
-4.75764
-4.76551
-4.77402
-4.7833
-4.79343
-4.80449
-4.81651
-4.82953
-4.84356
-4.85861
-4.87465
-4.89167
-4.90964
-4.92852
-4.94826
-4.96881
-4.99011
-5.0121
-5.03471
-5.05787
-5.0815
-5.10552
-5.12983
-5.15435
-5.17898
-5.20363
-5.22818
-5.25252
-5.27656
-5.30017
-5.32323
-5.34563
-5.36724
-5.38794
-5.40759
-5.42608
-5.44328
-5.45904
-5.47326
-5.4858
-5.49652
-5.50532
-5.51206
-5.51662
-5.51889
-5.51874
-5.51607
-5.51077
-5.50273
-5.49185
-5.47805
-5.46122
-5.4413
-5.41819
-5.39183
-5.36215
-5.3291
-5.29261
-5.25265
-5.20918
-5.16216
-5.11156
-5.05734
-4.99948
-4.93795
-4.87276
-4.80389
-4.73136
-4.65517
-4.57535
-4.4919
-4.40487
-4.31429
-4.22018
-4.12261
-4.02161
-3.91725
-3.80957
-3.69865
-3.58455
-3.46734
-3.34711
-3.22393
-3.09789
-2.96909
-2.83761
-2.70355
-2.56702
-2.42811
-2.28695
-2.14364
-1.99829
-1.85103
-1.70197
-1.55123
-1.39895
-1.24524
-1.09024
-0.934082
-0.776898
-0.618821
-0.459987
-0.300533
-0.140595
0.0196882
0.180177
0.340734
0.501222
0.661504
0.821443
0.980904
1.13975
1.29786
1.45509
1.61133
1.76644
1.9203
2.0728
2.22382
2.37325
2.52098
2.66692
2.81096
2.95301
3.09299
3.2308
3.36638
3.49965
3.63053
3.75898
3.88493
4.00834
4.12914
4.24731
4.3628
4.47559
4.58567
4.69301
4.79762
4.89948
4.9986
5.09499
5.18864
5.27957
5.3678
5.45334
5.53621
5.61643
5.69402
5.76901
5.84142
5.91129
5.97863
6.04348
6.10586
6.1658
6.22331
6.27843
6.33116
6.38152
6.42953
6.47517
6.51845
6.55933
6.59777
6.63365
6.66682
6.69689
6.72363
6.74495
6.76571
6.75568
-4.71296
-4.71705
-4.72343
-4.73045
-4.7372
-4.74372
-4.75026
-4.75704
-4.76424
-4.77202
-4.78048
-4.78973
-4.79985
-4.8109
-4.82291
-4.83592
-4.84994
-4.86497
-4.881
-4.898
-4.91596
-4.93482
-4.95456
-4.97511
-4.99642
-5.01843
-5.04106
-5.06425
-5.0879
-5.11194
-5.13628
-5.16082
-5.18546
-5.2101
-5.23463
-5.25895
-5.28293
-5.30646
-5.32942
-5.35169
-5.37315
-5.39366
-5.41311
-5.43136
-5.44828
-5.46376
-5.47766
-5.48985
-5.50022
-5.50863
-5.51497
-5.51912
-5.52096
-5.52038
-5.51728
-5.51153
-5.50305
-5.49174
-5.4775
-5.46025
-5.43991
-5.4164
-5.38965
-5.35959
-5.32618
-5.28937
-5.24909
-5.20533
-5.15804
-5.10717
-5.0527
-4.99459
-4.93284
-4.86744
-4.79839
-4.72569
-4.64936
-4.56941
-4.48586
-4.39875
-4.30811
-4.21397
-4.11638
-4.01539
-3.91105
-3.80342
-3.69256
-3.57854
-3.46144
-3.34133
-3.21829
-3.0924
-2.96377
-2.83247
-2.69861
-2.56228
-2.4236
-2.28267
-2.1396
-1.9945
-1.8475
-1.6987
-1.54824
-1.39623
-1.24281
-1.0881
-0.93223
-0.775342
-0.617564
-0.45903
-0.299878
-0.140244
0.0197337
0.179918
0.34017
0.500354
0.660332
0.819969
0.979131
1.13768
1.29549
1.45243
1.60838
1.7632
1.91679
2.06901
2.21976
2.36892
2.5164
2.66208
2.80588
2.94769
3.08743
3.22502
3.36039
3.49345
3.62414
3.7524
3.87817
4.0014
4.12205
4.24007
4.35543
4.46811
4.57808
4.68533
4.78985
4.89164
4.99071
5.08705
5.18066
5.27158
5.35979
5.44533
5.52821
5.60846
5.68608
5.76112
5.83359
5.90353
5.97095
6.03588
6.09834
6.15837
6.21597
6.27117
6.32397
6.37438
6.4224
6.46803
6.51122
6.55193
6.59007
6.6255
6.65801
6.68718
6.71272
6.73255
6.75161
6.73965
-4.72471
-4.72762
-4.7324
-4.73797
-4.74365
-4.74941
-4.7554
-4.76179
-4.7687
-4.77626
-4.78456
-4.79369
-4.8037
-4.81466
-4.82658
-4.8395
-4.85343
-4.86837
-4.88431
-4.90123
-4.9191
-4.93788
-4.95754
-4.97802
-4.99927
-5.02122
-5.0438
-5.06694
-5.09054
-5.11453
-5.13881
-5.16328
-5.18784
-5.21239
-5.23681
-5.26099
-5.28481
-5.30816
-5.33091
-5.35295
-5.37414
-5.39436
-5.41349
-5.4314
-5.44796
-5.46305
-5.47654
-5.48832
-5.49825
-5.50621
-5.5121
-5.51578
-5.51716
-5.51611
-5.51254
-5.50634
-5.4974
-5.48565
-5.47098
-5.45332
-5.43258
-5.40869
-5.38159
-5.3512
-5.31748
-5.28038
-5.23986
-5.19586
-5.14834
-5.09724
-5.04256
-4.98426
-4.92234
-4.8568
-4.78762
-4.71482
-4.63841
-4.5584
-4.47482
-4.3877
-4.29706
-4.20296
-4.10542
-4.00451
-3.90027
-3.79276
-3.68204
-3.56818
-3.45126
-3.33134
-3.2085
-3.08284
-2.95444
-2.8234
-2.6898
-2.55375
-2.41536
-2.27472
-2.13196
-1.98718
-1.84049
-1.69203
-1.5419
-1.39023
-1.23715
-1.08279
-0.927278
-0.770744
-0.613323
-0.455149
-0.296358
-0.137086
0.0225298
0.182352
0.342242
0.502065
0.661684
0.820963
0.979768
1.13797
1.29543
1.45202
1.60762
1.76211
1.91536
2.06725
2.21767
2.36652
2.51369
2.65906
2.80256
2.94409
3.08355
3.22087
3.35597
3.48878
3.61922
3.74725
3.8728
3.99582
4.11627
4.23411
4.3493
4.46182
4.57165
4.67877
4.78318
4.88487
4.98385
5.08011
5.17367
5.26453
5.35271
5.43823
5.5211
5.60134
5.67899
5.75406
5.82657
5.89655
5.96403
6.02903
6.09157
6.15167
6.20935
6.26462
6.31749
6.36794
6.41598
6.46157
6.50467
6.5452
6.58305
6.61804
6.64991
6.67822
6.70265
6.72113
6.73866
6.72517
-4.73452
-4.73646
-4.73968
-4.74375
-4.74825
-4.75311
-4.75843
-4.7643
-4.77081
-4.77805
-4.78609
-4.79499
-4.80481
-4.81557
-4.8273
-4.84003
-4.85375
-4.86848
-4.88419
-4.90088
-4.91852
-4.93707
-4.9565
-4.97675
-4.99777
-5.01949
-5.04184
-5.06475
-5.08813
-5.11188
-5.13593
-5.16015
-5.18445
-5.20872
-5.23285
-5.25672
-5.28022
-5.30322
-5.3256
-5.34725
-5.36803
-5.38783
-5.40651
-5.42396
-5.44005
-5.45466
-5.46767
-5.47894
-5.48838
-5.49585
-5.50124
-5.50443
-5.50533
-5.50381
-5.49978
-5.49314
-5.48379
-5.47163
-5.45658
-5.43856
-5.41749
-5.3933
-5.36591
-5.33528
-5.30135
-5.26408
-5.22339
-5.17923
-5.13155
-5.08032
-5.02552
-4.96713
-4.90514
-4.83954
-4.77034
-4.69754
-4.62116
-4.5412
-4.4577
-4.37067
-4.28016
-4.1862
-4.08883
-3.9881
-3.88407
-3.77678
-3.66631
-3.55272
-3.43607
-3.31644
-3.19392
-3.06859
-2.94053
-2.80983
-2.67659
-2.54092
-2.40291
-2.26266
-2.1203
-1.97592
-1.82965
-1.6816
-1.53189
-1.38065
-1.228
-1.07407
-0.918997
-0.762901
-0.605919
-0.448185
-0.289835
-0.131003
0.0281721
0.187555
0.347007
0.506394
0.665578
0.824425
0.982802
1.14057
1.29761
1.45379
1.60898
1.76306
1.9159
2.0674