/*--------------------------------*- C++ -*----------------------------------*\
| =========                 |                                                 |
| \\      /  F ield         | OpenFOAM: The Open Source CFD Toolbox           |
|  \\    /   O peration     | Version:  2412                                  |
|   \\  /    A nd           | Website:  www.openfoam.com                      |
|    \\/     M anipulation  |                                                 |
\*---------------------------------------------------------------------------*/
FoamFile
{
    version     2.0;
    format      ascii;
    arch        "LSB;label=32;scalar=64";
    class       surfaceScalarField;
    location    "0.3";
    object      phi;
}
// * * * * * * * * * * * * * * * * * * * * * * * * * * * * * * * * * * * * * //

dimensions      [0 3 -1 0 0 0 0];

oriented        oriented;

internalField   nonuniform List<scalar> 
24170
(
1.36706e-07
-5.7162e-08
1.95622e-07
-5.89157e-08
2.5792e-07
-6.22984e-08
3.11677e-07
-5.37564e-08
3.61817e-07
-5.01402e-08
4.07929e-07
-4.61119e-08
4.49578e-07
-4.16487e-08
4.87105e-07
-3.75273e-08
5.20897e-07
-3.37918e-08
5.5129e-07
-3.03934e-08
5.7861e-07
-2.73196e-08
6.03147e-07
-2.45373e-08
6.25144e-07
-2.19974e-08
6.44778e-07
-1.96333e-08
6.62183e-07
-1.74049e-08
6.77229e-07
-1.50467e-08
6.89912e-07
-1.26831e-08
-8.01816e-09
6.97931e-07
3.26112e-07
-1.24822e-07
3.94133e-07
-1.26937e-07
4.55889e-07
-1.24054e-07
5.1419e-07
-1.12057e-07
5.67686e-07
-1.03637e-07
6.16645e-07
-9.50707e-08
6.6129e-07
-8.62932e-08
7.01843e-07
-7.80812e-08
7.38604e-07
-7.0552e-08
7.71891e-07
-6.36803e-08
8.0201e-07
-5.74386e-08
8.29234e-07
-5.17622e-08
8.53797e-07
-4.656e-08
8.75877e-07
-4.17129e-08
8.95586e-07
-3.71142e-08
9.12922e-07
-3.23825e-08
9.27975e-07
-2.7736e-08
-1.99229e-08
9.39879e-07
5.17245e-07
-1.71611e-07
5.79152e-07
-1.88844e-07
6.38213e-07
-1.83115e-07
6.95372e-07
-1.69216e-07
7.48187e-07
-1.56452e-07
7.96795e-07
-1.43678e-07
8.41442e-07
-1.3094e-07
8.82264e-07
-1.18903e-07
9.19476e-07
-1.07765e-07
9.53343e-07
-9.75474e-08
9.84126e-07
-8.8221e-08
1.01206e-06
-7.97003e-08
1.03737e-06
-7.18629e-08
1.0602e-06
-6.45505e-08
1.08068e-06
-5.75925e-08
1.09891e-06
-5.06063e-08
1.1147e-06
-4.35246e-08
-3.34878e-08
1.12826e-06
7.4348e-07
-1.95421e-07
7.91922e-07
-2.37286e-07
8.43833e-07
-2.35027e-07
8.96368e-07
-2.2175e-07
9.46032e-07
-2.06117e-07
9.92314e-07
-1.8996e-07
1.03523e-06
-1.73856e-07
1.07478e-06
-1.58453e-07
1.11107e-06
-1.44058e-07
1.14429e-06
-1.30763e-07
1.17462e-06
-1.18555e-07
1.20227e-06
-1.07345e-07
1.2274e-06
-9.69936e-08
1.25017e-06
-8.73168e-08
1.27067e-06
-7.81004e-08
1.28904e-06
-6.89688e-08
1.30516e-06
-5.96469e-08
-4.80228e-08
1.31969e-06
1.01492e-06
-1.99876e-07
1.04731e-06
-2.69671e-07
1.08854e-06
-2.76254e-07
1.1334e-06
-2.66615e-07
1.17753e-06
-2.50247e-07
1.21953e-06
-2.3196e-07
1.25903e-06
-2.13352e-07
1.29582e-06
-1.9525e-07
1.32989e-06
-1.78121e-07
1.36128e-06
-1.62159e-07
1.39012e-06
-1.47397e-07
1.41654e-06
-1.33761e-07
1.44066e-06
-1.21113e-07
1.4626e-06
-1.09261e-07
1.48247e-06
-9.797e-08
1.50039e-06
-8.68861e-08
1.5164e-06
-7.56601e-08
-6.28286e-08
1.53121e-06
1.33808e-06
-1.90517e-07
1.35427e-06
-2.85857e-07
1.38245e-06
-3.04439e-07
1.41696e-06
-3.01126e-07
1.45317e-06
-2.86455e-07
1.48885e-06
-2.67636e-07
1.52314e-06
-2.47644e-07
1.55561e-06
-2.27716e-07
1.58603e-06
-2.08548e-07
1.61435e-06
-1.9048e-07
1.64058e-06
-1.73621e-07
1.66476e-06
-1.57939e-07
1.68696e-06
-1.43316e-07
1.70727e-06
-1.29572e-07
1.72578e-06
-1.16477e-07
1.74261e-06
-1.03718e-07
1.75791e-06
-9.09577e-08
-7.72222e-08
1.7723e-06
1.71767e-06
-1.72908e-07
1.7193e-06
-2.87489e-07
1.73353e-06
-3.18671e-07
1.75572e-06
-3.23315e-07
1.78184e-06
-3.12574e-07
1.80918e-06
-2.94976e-07
1.83645e-06
-2.7491e-07
1.86294e-06
-2.54205e-07
1.88824e-06
-2.3385e-07
1.91214e-06
-2.14378e-07
1.93452e-06
-1.96007e-07
1.95536e-06
-1.78774e-07
1.97465e-06
-1.62605e-07
1.99242e-06
-1.4735e-07
2.00876e-06
-1.32809e-07
2.02376e-06
-1.18724e-07
2.03762e-06
-1.04817e-07
-9.04697e-08
2.05087e-06
2.15734e-06
-1.51553e-07
2.14717e-06
-2.77327e-07
2.14805e-06
-3.19547e-07
2.15705e-06
-3.32315e-07
2.17149e-06
-3.27009e-07
2.18875e-06
-3.12243e-07
2.20729e-06
-2.93449e-07
2.22619e-06
-2.73105e-07
2.24487e-06
-2.52529e-07
2.26296e-06
-2.32467e-07
2.28023e-06
-2.13281e-07
2.29656e-06
-1.95099e-07
2.31187e-06
-1.77912e-07
2.32614e-06
-1.6162e-07
2.3394e-06
-1.4607e-07
2.35175e-06
-1.31073e-07
2.36336e-06
-1.16428e-07
-1.01773e-07
2.37466e-06
2.66011e-06
-1.29476e-07
2.64127e-06
-2.58485e-07
2.63057e-06
-3.0885e-07
2.6268e-06
-3.28541e-07
2.62889e-06
-3.29101e-07
2.63493e-06
-3.18284e-07
2.64341e-06
-3.01926e-07
2.65334e-06
-2.83032e-07
2.66403e-06
-2.63219e-07
2.675e-06
-2.43438e-07
2.68592e-06
-2.24204e-07
2.69657e-06
-2.05752e-07
2.70681e-06
-1.88152e-07
2.71657e-06
-1.71372e-07
2.72582e-06
-1.5532e-07
2.73462e-06
-1.39877e-07
2.74312e-06
-1.24928e-07
-1.10288e-07
2.75163e-06
3.22874e-06
-1.08353e-07
3.204e-06
-2.33752e-07
3.18408e-06
-2.88926e-07
3.16904e-06
-3.13508e-07
3.15924e-06
-3.19292e-07
3.15377e-06
-3.12821e-07
3.1515e-06
-2.99653e-07
3.15153e-06
-2.83068e-07
3.1532e-06
-2.64889e-07
3.15598e-06
-2.46218e-07
3.15948e-06
-2.27702e-07
3.16341e-06
-2.09683e-07
3.16758e-06
-1.92317e-07
3.17185e-06
-1.75644e-07
3.17617e-06
-1.59639e-07
3.18054e-06
-1.44251e-07
3.18506e-06
-1.29448e-07
-1.15162e-07
3.18994e-06
3.8657e-06
-8.9029e-08
3.83718e-06
-2.05226e-07
3.81026e-06
-2.62002e-07
3.78607e-06
-2.8932e-07
3.76578e-06
-2.99009e-07
3.74952e-06
-2.96554e-07
3.73665e-06
-2.86789e-07
3.72657e-06
-2.72989e-07
3.71874e-06
-2.57057e-07
3.71269e-06
-2.40165e-07
3.70803e-06
-2.2304e-07
3.70445e-06
-2.06109e-07
3.70174e-06
-1.89601e-07
3.69972e-06
-1.73625e-07
3.6983e-06
-1.58219e-07
3.69744e-06
-1.43393e-07
3.69718e-06
-1.29189e-07
-1.15604e-07
3.69763e-06
3.81123e-06
-7.33566e-08
3.78552e-06
-1.79513e-07
3.75884e-06
-2.35318e-07
3.733e-06
-2.63485e-07
3.70932e-06
-2.75332e-07
3.68839e-06
-2.75621e-07
3.67011e-06
-2.68505e-07
3.65421e-06
-2.5709e-07
3.64041e-06
-2.43264e-07
3.62844e-06
-2.28191e-07
3.61802e-06
-2.12617e-07
3.60892e-06
-1.97008e-07
3.60095e-06
-1.81638e-07
3.59399e-06
-1.66659e-07
3.58792e-06
-1.52154e-07
3.58271e-06
-1.38177e-07
3.57828e-06
-1.24765e-07
-1.12162e-07
3.57484e-06
5.03713e-06
-5.77255e-08
5.00707e-06
-1.49456e-07
4.97361e-06
-2.01858e-07
4.93953e-06
-2.29402e-07
4.90653e-06
-2.42338e-07
4.87577e-06
-2.44855e-07
4.84753e-06
-2.40268e-07
4.8218e-06
-2.31357e-07
4.79846e-06
-2.19923e-07
4.77734e-06
-2.07071e-07
4.75824e-06
-1.93521e-07
4.74097e-06
-1.79743e-07
4.72537e-06
-1.66033e-07
4.71128e-06
-1.52574e-07
4.69861e-06
-1.3948e-07
4.68727e-06
-1.26837e-07
4.67721e-06
-1.14707e-07
-1.03433e-07
4.66848e-06
6.66244e-06
-4.26916e-08
6.62913e-06
-1.16147e-07
6.58918e-06
-1.61905e-07
6.54671e-06
-1.86937e-07
6.50387e-06
-1.99497e-07
6.46231e-06
-2.033e-07
6.42284e-06
-2.00796e-07
6.38572e-06
-1.94236e-07
6.35104e-06
-1.85244e-07
6.3188e-06
-1.74829e-07
6.28892e-06
-1.63642e-07
6.2613e-06
-1.5212e-07
6.23582e-06
-1.40553e-07
6.21237e-06
-1.2913e-07
6.19087e-06
-1.1798e-07
6.17124e-06
-1.07199e-07
6.1534e-06
-9.68695e-08
-8.73553e-08
6.13732e-06
8.79086e-06
-2.88902e-08
8.75646e-06
-8.17468e-08
8.71176e-06
-1.17202e-07
8.66209e-06
-1.37266e-07
8.61015e-06
-1.47561e-07
8.55807e-06
-1.51219e-07
8.50722e-06
-1.49941e-07
8.45827e-06
-1.45288e-07
8.41157e-06
-1.38549e-07
8.36731e-06
-1.30571e-07
8.32557e-06
-1.21897e-07
8.28634e-06
-1.12893e-07
8.2496e-06
-1.03815e-07
8.21531e-06
-9.48372e-08
8.18341e-06
-8.60783e-08
8.15384e-06
-7.76318e-08
8.12654e-06
-6.95659e-08
-6.22577e-08
8.10144e-06
1.15181e-05
-1.66175e-08
1.14848e-05
-4.84475e-08
1.14384e-05
-7.08012e-08
1.13845e-05
-8.34422e-08
1.13265e-05
-8.94811e-08
1.12665e-05
-9.12321e-08
1.12064e-05
-8.98398e-08
1.11473e-05
-8.62182e-08
1.10899e-05
-8.11983e-08
1.10347e-05
-7.5374e-08
1.0982e-05
-6.91204e-08
1.09318e-05
-6.26884e-08
1.08842e-05
-5.62575e-08
1.08393e-05
-4.99552e-08
1.07971e-05
-4.38752e-08
1.07576e-05
-3.80945e-08
1.07207e-05
-3.26402e-08
-2.78955e-08
1.06863e-05
1.48842e-05
-5.41132e-09
1.48525e-05
-1.67323e-08
1.48063e-05
-2.45756e-08
1.47511e-05
-2.82179e-08
1.46904e-05
-2.88222e-08
1.46267e-05
-2.75578e-08
1.45619e-05
-2.50132e-08
1.44973e-05
-2.15855e-08
1.44337e-05
-1.7655e-08
1.43719e-05
-1.35153e-08
1.43121e-05
-9.35116e-09
1.42547e-05
-5.28049e-09
1.41998e-05
-1.39382e-09
1.41476e-05
2.26424e-09
1.40981e-05
5.63857e-09
1.40513e-05
8.68317e-09
1.40072e-05
1.14287e-08
1.3525e-08
1.39658e-05
1.8769e-05
6.26401e-09
1.87365e-05
1.58016e-08
1.86883e-05
2.36155e-08
1.86301e-05
2.99736e-08
1.85661e-05
3.52167e-08
1.84989e-05
3.96098e-08
1.84306e-05
4.33198e-08
1.83625e-05
4.647e-08
1.82957e-05
4.91548e-08
1.82307e-05
5.14406e-08
1.8168e-05
5.33719e-08
1.81078e-05
5.49785e-08
1.80501e-05
5.62804e-08
1.79951e-05
5.72886e-08
1.79427e-05
5.8009e-08
1.7893e-05
5.8429e-08
1.78458e-05
5.86075e-08
5.82847e-08
1.7801e-05
2.26768e-05
1.69952e-08
2.26398e-05
5.27569e-08
2.25834e-05
8.00181e-08
2.25148e-05
9.85755e-08
2.24391e-05
1.10923e-07
2.23597e-05
1.19067e-07
2.22789e-05
1.24067e-07
2.21987e-05
1.26698e-07
2.21202e-05
1.2766e-07
2.20442e-05
1.27473e-07
2.19711e-05
1.26479e-07
2.19011e-05
1.24904e-07
2.18345e-05
1.22909e-07
2.17712e-05
1.20605e-07
2.17111e-05
1.1807e-07
2.16542e-05
1.15352e-07
2.16003e-05
1.12512e-07
1.09408e-07
2.15492e-05
1.5604e-05
3.26416e-08
1.55641e-05
9.26183e-08
1.55091e-05
1.35034e-07
1.54456e-05
1.62013e-07
1.53777e-05
1.78854e-07
1.5308e-05
1.88774e-07
1.52386e-05
1.93491e-07
1.51708e-05
1.94464e-07
1.51055e-05
1.92936e-07
1.50432e-05
1.89772e-07
1.49842e-05
1.85535e-07
1.49285e-05
1.80611e-07
1.48761e-05
1.75275e-07
1.4827e-05
1.69716e-07
1.4781e-05
1.64066e-07
1.47379e-05
1.58418e-07
1.46976e-05
1.52832e-07
1.47249e-07
1.46598e-05
1.23902e-05
5.12343e-08
1.23448e-05
1.38094e-07
1.22864e-05
1.93397e-07
1.22225e-05
2.25901e-07
1.21566e-05
2.44756e-07
1.20913e-05
2.54076e-07
1.20284e-05
2.56394e-07
1.19688e-05
2.54042e-07
1.1913e-05
2.48773e-07
1.18611e-05
2.4171e-07
1.1813e-05
2.33579e-07
1.17687e-05
2.2488e-07
1.17281e-05
2.15953e-07
1.16908e-05
2.07026e-07
1.16566e-05
1.98246e-07
1.16253e-05
1.89711e-07
1.15966e-05
1.81466e-07
1.73498e-07
1.15704e-05
9.55928e-06
7.55424e-08
9.50978e-06
1.87599e-07
9.45371e-06
2.49469e-07
9.39689e-06
2.82718e-07
9.34169e-06
2.99953e-07
9.29011e-06
3.05657e-07
9.24309e-06
3.03412e-07
9.20078e-06
2.96357e-07
9.16302e-06
2.86535e-07
9.12955e-06
2.75176e-07
9.10005e-06
2.6308e-07
9.07415e-06
2.5078e-07
9.05149e-06
2.38615e-07
9.03172e-06
2.26793e-07
9.01453e-06
2.15438e-07
8.99962e-06
2.04618e-07
8.98674e-06
1.94351e-07
1.8464e-07
8.9756e-06
7.18003e-06
1.04962e-07
7.13264e-06
2.34992e-07
7.08699e-06
2.95113e-07
7.04542e-06
3.24295e-07
7.00919e-06
3.3618e-07
6.97925e-06
3.35596e-07
6.95527e-06
3.27388e-07
6.93649e-06
3.15138e-07
6.92217e-06
3.00854e-07
6.91164e-06
2.85705e-07
6.90429e-06
2.70431e-07
6.89959e-06
2.55487e-07
6.89707e-06
2.41132e-07
6.89636e-06
2.27502e-07
6.89714e-06
2.14655e-07
6.89915e-06
2.02607e-07
6.90217e-06
1.91337e-07
1.8084e-07
6.90597e-06
5.24556e-06
1.3812e-07
5.20786e-06
2.72692e-07
5.18042e-06
3.22547e-07
5.16161e-06
3.43113e-07
5.15134e-06
3.4645e-07
5.14856e-06
3.38372e-07
5.15145e-06
3.24502e-07
5.1585e-06
3.08087e-07
5.16862e-06
2.90737e-07
5.18095e-06
2.73374e-07
5.19483e-06
2.56548e-07
5.20976e-06
2.40552e-07
5.22537e-06
2.25522e-07
5.24138e-06
2.11501e-07
5.25755e-06
1.98478e-07
5.27375e-06
1.86413e-07
5.28983e-06
1.75249e-07
1.64972e-07
5.3057e-06
3.71461e-06
1.71643e-07
3.69607e-06
2.91236e-07
3.69442e-06
3.24197e-07
3.70433e-06
3.33194e-07
3.72341e-06
3.27377e-07
3.74838e-06
3.13401e-07
3.77668e-06
2.96199e-07
3.80677e-06
2.78001e-07
3.83764e-06
2.59862e-07
3.86863e-06
2.42391e-07
3.89926e-06
2.25913e-07
3.92925e-06
2.10563e-07
3.95841e-06
1.96367e-07
3.98661e-06
1.83294e-07
4.01381e-06
1.7128e-07
4.03997e-06
1.6025e-07
4.0651e-06
1.50127e-07
1.40895e-07
4.08917e-06
2.5354e-06
1.96843e-07
2.54624e-06
2.80392e-07
2.57485e-06
2.95583e-07
2.61417e-06
2.93877e-07
2.65963e-06
2.81923e-07
2.70723e-06
2.658e-07
2.75495e-06
2.48479e-07
2.80179e-06
2.31161e-07
2.84715e-06
2.14497e-07
2.89071e-06
1.98837e-07
2.93229e-06
1.8433e-07
2.97185e-06
1.71005e-07
3.00939e-06
1.5882e-07
3.04498e-06
1.47702e-07
3.0787e-06
1.37566e-07
3.11063e-06
1.28322e-07
3.14087e-06
1.19887e-07
1.12262e-07
3.1695e-06
1.65469e-06
1.99257e-07
1.70056e-06
2.34526e-07
1.75707e-06
2.39071e-07
1.81981e-06
2.31139e-07
1.88376e-06
2.17976e-07
1.94595e-06
2.03606e-07
2.00552e-06
1.88906e-07
2.06211e-06
1.74577e-07
2.11552e-06
1.61084e-07
2.16575e-06
1.48606e-07
2.2129e-06
1.37186e-07
2.2571e-06
1.26798e-07
2.29855e-06
1.17377e-07
2.33741e-06
1.0884e-07
2.37387e-06
1.01101e-07
2.40812e-06
9.40781e-08
2.44031e-06
8.76916e-08
8.19793e-08
2.4706e-06
1.01827e-06
1.63846e-07
1.09488e-06
1.57921e-07
1.17023e-06
1.63716e-07
1.24668e-06
1.54691e-07
1.32007e-06
1.4459e-07
1.38904e-06
1.34633e-07
1.45366e-06
1.24283e-07
1.51399e-06
1.14252e-07
1.57012e-06
1.04951e-07
1.62228e-06
9.64448e-08
1.67075e-06
8.87224e-08
1.7158e-06
8.17481e-08
1.75771e-06
7.54626e-08
1.79675e-06
6.97967e-08
1.83317e-06
6.46827e-08
1.86719e-06
6.00597e-08
1.89903e-06
5.58485e-08
5.21246e-08
1.92889e-06
5.69236e-07
8.45264e-08
6.58979e-07
6.81778e-08
7.40757e-07
8.19381e-08
8.20847e-07
7.46007e-08
8.9584e-07
6.95973e-08
9.65385e-07
6.5087e-08
1.0298e-06
5.98707e-08
1.0893e-06
5.47547e-08
1.14416e-06
5.00887e-08
1.19474e-06
4.58618e-08
1.24142e-06
4.20448e-08
1.28455e-06
3.86172e-08
1.32447e-06
3.5545e-08
1.36147e-06
3.27884e-08
1.39585e-06
3.03091e-08
1.42783e-06
2.80787e-08
1.45765e-06
2.60248e-08
2.41964e-08
1.48558e-06
2.22451e-07
2.90628e-07
3.72566e-07
4.47167e-07
5.16764e-07
5.81852e-07
6.41722e-07
6.96477e-07
7.46566e-07
7.92427e-07
8.34472e-07
8.73089e-07
9.08634e-07
9.41423e-07
9.71732e-07
9.9981e-07
1.02584e-06
1.05003e-06
1.80169e-08
-1.80169e-08
4.10584e-08
-2.30414e-08
6.13435e-08
-2.02851e-08
7.63488e-08
-1.50052e-08
8.51382e-08
-8.78943e-09
8.76353e-08
-2.49711e-09
8.43451e-08
3.2902e-09
7.62131e-08
8.13197e-09
6.42901e-08
1.1923e-08
4.94422e-08
1.48479e-08
3.2215e-08
1.72271e-08
1.28431e-08
1.93719e-08
-8.6755e-09
2.15186e-08
-3.25079e-08
2.38324e-08
-5.8891e-08
2.63831e-08
-8.8056e-08
2.9165e-08
-1.20197e-07
3.21411e-08
-1.55443e-07
3.52455e-08
-1.9384e-07
3.83979e-08
-2.35352e-07
4.15116e-08
-2.79851e-07
4.44992e-08
-3.2713e-07
4.7279e-08
-3.7691e-07
4.97797e-08
-4.28855e-07
5.19446e-08
-4.82589e-07
5.3734e-08
-5.37715e-07
5.51263e-08
-5.93832e-07
5.61172e-08
-6.5055e-07
5.6718e-08
-7.07504e-07
5.69541e-08
-7.64369e-07
5.68653e-08
-8.20874e-07
5.65048e-08
-8.76801e-07
5.59272e-08
-9.31971e-07
5.51697e-08
-9.86231e-07
5.42594e-08
-1.03946e-06
5.32248e-08
-1.09155e-06
5.20923e-08
-1.14243e-06
5.08856e-08
-1.19206e-06
4.96249e-08
-1.24039e-06
4.83271e-08
-1.28739e-06
4.7006e-08
-1.33306e-06
4.56721e-08
-1.3774e-06
4.43331e-08
-1.42039e-06
4.29945e-08
-1.46205e-06
4.166e-08
-1.50238e-06
4.03315e-08
-1.54139e-06
3.90099e-08
-1.57909e-06
3.76952e-08
-1.61547e-06
3.63866e-08
-1.65056e-06
3.50831e-08
-1.68434e-06
3.37834e-08
-1.71683e-06
3.24859e-08
-1.74802e-06
3.11893e-08
-1.77791e-06
2.98922e-08
-1.8065e-06
2.85935e-08
-1.83379e-06
2.7292e-08
-1.85978e-06
2.59869e-08
-1.88446e-06
2.46775e-08
-1.90782e-06
2.33632e-08
-1.92986e-06
2.20436e-08
-1.95058e-06
2.07186e-08
-1.96997e-06
1.93878e-08
-1.98802e-06
1.8051e-08
-2.00473e-06
1.67079e-08
-2.02009e-06
1.5358e-08
-2.03409e-06
1.40006e-08
-2.04672e-06
1.26345e-08
-2.05798e-06
1.12578e-08
-2.06785e-06
9.86705e-09
-2.07631e-06
8.45828e-09
-2.08333e-06
7.02635e-09
-2.0889e-06
5.56406e-09
-2.09296e-06
4.06223e-09
-2.09547e-06
2.51614e-09
-2.09639e-06
9.15059e-10
-2.09578e-06
-6.06975e-10
-2.09388e-06
-1.90108e-09
-2.09075e-06
-3.13203e-09
-2.08643e-06
-4.3192e-09
-2.08095e-06
-5.48171e-09
-2.07432e-06
-6.62986e-09
-2.06655e-06
-7.76751e-09
-2.05766e-06
-8.896e-09
-2.04764e-06
-1.00154e-08
-2.03651e-06
-1.11256e-08
-2.02429e-06
-1.22258e-08
-2.01097e-06
-1.33155e-08
-1.99658e-06
-1.43941e-08
-1.98112e-06
-1.5461e-08
-1.9646e-06
-1.65156e-08
-1.94705e-06
-1.75573e-08
-1.92846e-06
-1.85857e-08
-1.90886e-06
-1.96001e-08
-1.88826e-06
-2.06003e-08
-1.86667e-06
-2.15856e-08
-1.84412e-06
-2.25557e-08
-1.82061e-06
-2.35102e-08
-1.79616e-06
-2.44486e-08
-1.77079e-06
-2.53705e-08
-1.74451e-06
-2.62755e-08
-1.71735e-06
-2.71632e-08
-1.68932e-06
-2.80333e-08
-1.66043e-06
-2.88852e-08
-1.63071e-06
-2.97186e-08
-1.60018e-06
-3.05331e-08
-1.56885e-06
-3.13283e-08
-1.53675e-06
-3.21038e-08
-1.50389e-06
-3.2859e-08
-1.47029e-06
-3.35935e-08
-1.43599e-06
-3.43069e-08
-1.40099e-06
-3.49985e-08
-1.36532e-06
-3.56681e-08
-1.32901e-06
-3.6315e-08
-1.29207e-06
-3.69387e-08
-1.25453e-06
-3.75388e-08
-1.21641e-06
-3.81147e-08
-1.17775e-06
-3.86658e-08
-1.13856e-06
-3.91917e-08
-1.09886e-06
-3.96918e-08
-1.0587e-06
-4.01657e-08
-1.01809e-06
-4.06129e-08
-9.77053e-07
-4.10329e-08
-9.35628e-07
-4.14252e-08
-8.93839e-07
-4.17895e-08
-8.51713e-07
-4.21253e-08
-8.09281e-07
-4.24323e-08
-7.66571e-07
-4.27101e-08
-7.23613e-07
-4.29585e-08
-6.80435e-07
-4.31772e-08
-6.37069e-07
-4.3366e-08
-5.93545e-07
-4.35247e-08
-5.49891e-07
-4.36532e-08
-5.0614e-07
-4.37513e-08
-4.62321e-07
-4.38188e-08
-4.18466e-07
-4.38557e-08
-3.74604e-07
-4.38618e-08
-3.30767e-07
-4.38367e-08
-2.86987e-07
-4.37801e-08
-2.43296e-07
-4.36912e-08
-1.99726e-07
-4.35695e-08
-1.56314e-07
-4.34125e-08
-1.13093e-07
-4.32209e-08
-7.00964e-08
-4.29964e-08
-2.73626e-08
-4.27338e-08
1.50712e-08
-4.24338e-08
5.71641e-08
-4.2093e-08
9.8886e-08
-4.17219e-08
1.40221e-07
-4.13348e-08
1.81164e-07
-4.09433e-08
2.2171e-07
-4.05457e-08
2.61849e-07
-4.01397e-08
3.01573e-07
-3.97236e-08
3.4087e-07
-3.92965e-08
3.79728e-07
-3.88584e-08
4.18138e-07
-3.84097e-08
4.56089e-07
-3.79512e-08
4.93573e-07
-3.74838e-08
5.30581e-07
-3.70086e-08
5.67108e-07
-3.65268e-08
6.03148e-07
-3.60397e-08
6.38696e-07
-3.55482e-08
6.73749e-07
-3.50536e-08
7.08306e-07
-3.45565e-08
7.42364e-07
-3.40576e-08
7.7592e-07
-3.35569e-08
8.08974e-07
-3.30539e-08
8.41521e-07
-3.2547e-08
8.73555e-07
-3.20334e-08
9.05063e-07
-3.1508e-08
9.36026e-07
-3.09627e-08
9.6641e-07
-3.03849e-08
9.96165e-07
-2.97544e-08
1.0252e-06
-2.90388e-08
1.05339e-06
-2.81847e-08
1.08049e-06
-2.71007e-08
1.1061e-06
-2.56095e-08
1.12947e-06
-2.33695e-08
1.14889e-06
-1.94241e-08
1.16051e-06
-1.16192e-08
1.15173e-06
8.78384e-09
5.401e-08
1.09772e-06
1.76975e-08
-3.57145e-08
2.84256e-08
-3.37695e-08
3.15405e-08
-2.34001e-08
2.90342e-08
-1.24989e-08
2.22174e-08
-1.97263e-09
1.18274e-08
7.8929e-09
-1.80576e-09
1.69234e-08
-1.86968e-08
2.50231e-08
-3.89661e-08
3.21922e-08
-6.2698e-08
3.85799e-08
-8.99078e-08
4.44369e-08
-1.20564e-07
5.00285e-08
-1.54609e-07
5.5563e-08
-1.91939e-07
6.11625e-08
-2.32419e-07
6.68628e-08
-2.75879e-07
7.26251e-08
-3.22095e-07
7.83576e-08
-3.70787e-07
8.39378e-08
-4.21621e-07
8.9231e-08
-4.74216e-07
9.41066e-08
-5.28165e-07
9.84484e-08
-5.8305e-07
1.02164e-07
-6.38459e-07
1.05189e-07
-6.94004e-07
1.0749e-07
-7.49334e-07
1.09063e-07
-8.0414e-07
1.09933e-07
-8.58167e-07
1.10144e-07
-9.11209e-07
1.09761e-07
-9.63113e-07
1.08858e-07
-1.01377e-06
1.07517e-07
-1.06308e-06
1.05824e-07
-1.11101e-06
1.03853e-07
-1.15751e-06
1.01667e-07
-1.20257e-06
9.93192e-08
-1.2462e-06
9.68549e-08
-1.28842e-06
9.43123e-08
-1.32925e-06
9.17222e-08
-1.36874e-06
8.9109e-08
-1.4069e-06
8.64911e-08
-1.44378e-06
8.38816e-08
-1.47939e-06
8.12893e-08
-1.51378e-06
7.87196e-08
-1.54696e-06
7.61749e-08
-1.57896e-06
7.36554e-08
-1.60979e-06
7.116e-08
-1.63946e-06
6.86862e-08
-1.668e-06
6.62309e-08
-1.6954e-06
6.37907e-08
-1.72168e-06
6.1362e-08
-1.74684e-06
5.89413e-08
-1.77088e-06
5.65251e-08
-1.7938e-06
5.41105e-08
-1.8156e-06
5.16948e-08
-1.83628e-06
4.92757e-08
-1.85584e-06
4.68512e-08
-1.87428e-06
4.44199e-08
-1.89158e-06
4.19806e-08
-1.90775e-06
3.95326e-08
-1.92278e-06
3.70754e-08
-1.93667e-06
3.46088e-08
-1.94942e-06
3.21328e-08
-1.96101e-06
2.96475e-08
-1.97146e-06
2.71532e-08
-1.98075e-06
2.46502e-08
-1.98889e-06
2.21387e-08
-1.99587e-06
1.9619e-08
-2.00171e-06
1.70915e-08
-2.0064e-06
1.45566e-08
-2.00995e-06
1.20151e-08
-2.0124e-06
9.46905e-09
-2.01375e-06
6.92242e-09
-2.01407e-06
4.38307e-09
-2.01343e-06
1.86833e-09
-2.01192e-06
-5.94069e-10
-2.00951e-06
-3.01055e-09
-2.00607e-06
-5.34835e-09
-2.00154e-06
-7.66353e-09
-1.99589e-06
-9.96035e-09
-1.98914e-06
-1.22401e-08
-1.98126e-06
-1.45044e-08
-1.97227e-06
-1.67535e-08
-1.96218e-06
-1.8987e-08
-1.951e-06
-2.12039e-08
-1.93872e-06
-2.3403e-08
-1.92536e-06
-2.5583e-08
-1.91093e-06
-2.77426e-08
-1.89545e-06
-2.98805e-08
-1.87891e-06
-3.19954e-08
-1.86134e-06
-3.40862e-08
-1.84275e-06
-3.61517e-08
-1.82314e-06
-3.81908e-08
-1.80254e-06
-4.02026e-08
-1.78095e-06
-4.21861e-08
-1.7584e-06
-4.41403e-08
-1.73489e-06
-4.60645e-08
-1.71044e-06
-4.79576e-08
-1.68507e-06
-4.9819e-08
-1.6588e-06
-5.16476e-08
-1.63163e-06
-5.34428e-08
-1.60359e-06
-5.52036e-08
-1.57469e-06
-5.69292e-08
-1.54496e-06
-5.86188e-08
-1.51441e-06
-6.02716e-08
-1.48305e-06
-6.18868e-08
-1.45092e-06
-6.34634e-08
-1.41802e-06
-6.50007e-08
-1.38438e-06
-6.64977e-08
-1.35002e-06
-6.79535e-08
-1.31496e-06
-6.9367e-08
-1.27922e-06
-7.07373e-08
-1.24283e-06
-7.20634e-08
-1.2058e-06
-7.33442e-08
-1.16816e-06
-7.45789e-08
-1.12993e-06
-7.57664e-08
-1.09114e-06
-7.69055e-08
-1.05181e-06
-7.79952e-08
-1.01197e-06
-7.90345e-08
-9.71637e-07
-8.00224e-08
-9.30845e-07
-8.09579e-08
-8.89617e-07
-8.18401e-08
-8.47982e-07
-8.26679e-08
-8.05967e-07
-8.34405e-08
-7.636e-07
-8.4157e-08
-7.20908e-07
-8.48168e-08
-6.77921e-07
-8.54191e-08
-6.34668e-07
-8.59631e-08
-5.91179e-07
-8.64483e-08
-5.47481e-07
-8.68743e-08
-5.03607e-07
-8.72406e-08
-4.59585e-07
-8.75469e-08
-4.15445e-07
-8.77928e-08
-3.71218e-07
-8.79781e-08
-3.26934e-07
-8.81026e-08
-2.82624e-07
-8.8166e-08
-2.38318e-07
-8.81681e-08
-1.94046e-07
-8.81084e-08
-1.4984e-07
-8.79864e-08
-1.0573e-07
-8.78007e-08
-6.17487e-08
-8.75512e-08
-1.79261e-08
-8.72351e-08
2.57046e-08
-8.68516e-08
6.91105e-08
-8.64023e-08
1.12263e-07
-8.58865e-08
1.55139e-07
-8.53095e-08
1.97718e-07
-8.46721e-08
2.39979e-07
-8.39828e-08
2.81902e-07
-8.3258e-08
3.23467e-07
-8.25084e-08
3.64658e-07
-8.17363e-08
4.05459e-07
-8.09411e-08
4.45858e-07
-8.01222e-08
4.85841e-07
-7.92794e-08
5.25396e-07
-7.84137e-08
5.64513e-07
-7.75262e-08
6.0318e-07
-7.66187e-08
6.4139e-07
-7.56935e-08
6.79134e-07
-7.47527e-08
7.16406e-07
-7.37988e-08
7.53201e-07
-7.28343e-08
7.89514e-07
-7.18613e-08
8.25342e-07
-7.08821e-08
8.60684e-07
-6.98984e-08
8.95538e-07
-6.89111e-08
9.29901e-07
-6.79205e-08
9.63773e-07
-6.69254e-08
9.97148e-07
-6.59228e-08
1.03002e-06
-6.49069e-08
1.06238e-06
-6.38676e-08
1.09421e-06
-6.27889e-08
1.12547e-06
-6.16455e-08
1.15611e-06
-6.03976e-08
1.18605e-06
-5.89817e-08
1.21516e-06
-5.72935e-08
1.24322e-06
-5.5157e-08
1.26986e-06
-5.22453e-08
1.29444e-06
-4.79499e-08
1.31584e-06
-4.08333e-08
1.3325e-06
-2.82736e-08
1.3428e-06
-1.51703e-09
5.34142e-08
1.3434e-06
4.97473e-09
-4.06892e-08
2.63277e-10
-2.90581e-08
-9.34097e-09
-1.37958e-08
-2.23167e-08
4.76797e-10
-3.79657e-08
1.36764e-08
-5.61291e-08
2.60562e-08
-7.68126e-08
3.76069e-08
-1.00141e-07
4.83512e-08
-1.26289e-07
5.83407e-08
-1.55397e-07
6.76873e-08
-1.87506e-07
7.65467e-08
-2.22551e-07
8.50729e-08
-2.60362e-07
9.33745e-08
-3.00692e-07
1.01492e-07
-3.43225e-07
1.09396e-07
-3.87606e-07
1.17006e-07
-4.3345e-07
1.24202e-07
-4.80366e-07
1.30854e-07
-5.27969e-07
1.36834e-07
-5.75895e-07
1.42033e-07
-6.23817e-07
1.4637e-07
-6.71451e-07
1.49798e-07
-7.18565e-07
1.52303e-07
-7.64978e-07
1.53903e-07
-8.10558e-07
1.54644e-07
-8.55218e-07
1.54592e-07
-8.98906e-07
1.53832e-07
-9.41598e-07
1.52453e-07
-9.83291e-07
1.50551e-07
-1.02399e-06
1.48218e-07
-1.06371e-06
1.45543e-07
-1.10246e-06
1.42602e-07
-1.14026e-06
1.39462e-07
-1.17711e-06
1.36176e-07
-1.21305e-06
1.32791e-07
-1.24808e-06
1.29344e-07
-1.28222e-06
1.25863e-07
-1.31548e-06
1.22369e-07
-1.34787e-06
1.18878e-07
-1.37939e-06
1.154e-07
-1.41004e-06
1.11941e-07
-1.43982e-06
1.08505e-07
-1.46874e-06
1.05092e-07
-1.49678e-06
1.017e-07
-1.52395e-06
9.83256e-08
-1.55023e-06
9.49659e-08
-1.57562e-06
9.16165e-08
-1.6001e-06
8.82727e-08
-1.62367e-06
8.49303e-08
-1.64631e-06
8.15851e-08
-1.66802e-06
7.82332e-08
-1.68878e-06
7.48713e-08
-1.70858e-06
7.14966e-08
-1.72741e-06
6.81066e-08
-1.74526e-06
6.46996e-08
-1.76211e-06
6.12742e-08
-1.77796e-06
5.78298e-08
-1.7928e-06
5.43659e-08
-1.8066e-06
5.08829e-08
-1.81938e-06
4.73812e-08
-1.8311e-06
4.38616e-08
-1.84178e-06
4.03254e-08
-1.8514e-06
3.6774e-08
-1.85996e-06
3.32092e-08
-1.86746e-06
2.96328e-08
-1.87388e-06
2.60472e-08
-1.87925e-06
2.24549e-08
-1.88355e-06
1.88593e-08
-1.8868e-06
1.52644e-08
-1.88901e-06
1.16753e-08
-1.89018e-06
8.0989e-09
-1.89034e-06
4.54398e-09
-1.8895e-06
1.02082e-09
-1.88763e-06
-2.46015e-09
-1.88474e-06
-5.90487e-09
-1.88077e-06
-9.31832e-09
-1.87572e-06
-1.27123e-08
-1.86959e-06
-1.60896e-08
-1.86238e-06
-1.94502e-08
-1.85409e-06
-2.2793e-08
-1.84473e-06
-2.61165e-08
-1.83429e-06
-2.94186e-08
-1.8228e-06
-3.26975e-08
-1.81025e-06
-3.59509e-08
-1.79666e-06
-3.91767e-08
-1.78203e-06
-4.23729e-08
-1.76637e-06
-4.55376e-08
-1.7497e-06
-4.86687e-08
-1.73202e-06
-5.17645e-08
-1.71335e-06
-5.48232e-08
-1.6937e-06
-5.78433e-08
-1.67308e-06
-6.08232e-08
-1.6515e-06
-6.37614e-08
-1.62898e-06
-6.66566e-08
-1.60554e-06
-6.95074e-08
-1.58119e-06
-7.23126e-08
-1.55593e-06
-7.50707e-08
-1.5298e-06
-7.77805e-08
-1.5028e-06
-8.04408e-08
-1.47496e-06
-8.30502e-08
-1.44628e-06
-8.56076e-08
-1.41679e-06
-8.81115e-08
-1.3865e-06
-9.05609e-08
-1.35543e-06
-9.29544e-08
-1.3236e-06
-9.52908e-08
-1.29103e-06
-9.75687e-08
-1.25774e-06
-9.97867e-08
-1.22375e-06
-1.01943e-07
-1.18908e-06
-1.04037e-07
-1.15375e-06
-1.06067e-07
-1.11779e-06
-1.08031e-07
-1.0812e-06
-1.09928e-07
-1.04403e-06
-1.11756e-07
-1.00628e-06
-1.13513e-07
-9.67986e-07
-1.15199e-07
-9.2917e-07
-1.16811e-07
-8.89856e-07
-1.18348e-07
-8.5007e-07
-1.19809e-07
-8.09836e-07
-1.21192e-07
-7.69181e-07
-1.22495e-07
-7.28132e-07
-1.23717e-07
-6.86715e-07
-1.24857e-07
-6.44959e-07
-1.25914e-07
-6.02889e-07
-1.26886e-07
-5.60536e-07
-1.27772e-07
-5.17927e-07
-1.28572e-07
-4.75091e-07
-1.29284e-07
-4.32057e-07
-1.29908e-07
-3.88854e-07
-1.30444e-07
-3.45512e-07
-1.30889e-07
-3.02059e-07
-1.31245e-07
-2.58526e-07
-1.31511e-07
-2.14942e-07
-1.31687e-07
-1.71336e-07
-1.31771e-07
-1.27739e-07
-1.31765e-07
-8.41801e-08
-1.31667e-07
-4.06887e-08
-1.31478e-07
2.70585e-09
-1.31195e-07
4.5973e-08
-1.30818e-07
8.90832e-08
-1.30345e-07
1.32008e-07
-1.29777e-07
1.7472e-07
-1.29114e-07
2.17196e-07
-1.28363e-07
2.59419e-07
-1.27533e-07
3.01376e-07
-1.26629e-07
3.43047e-07
-1.25654e-07
3.84407e-07
-1.24617e-07
4.25429e-07
-1.23531e-07
4.66094e-07
-1.22401e-07
5.06383e-07
-1.2123e-07
5.4628e-07
-1.20019e-07
5.85772e-07
-1.18771e-07
6.24845e-07
-1.17487e-07
6.63488e-07
-1.1617e-07
7.01692e-07
-1.14822e-07
7.39447e-07
-1.13448e-07
7.76745e-07
-1.12051e-07
8.1358e-07
-1.10634e-07
8.49948e-07
-1.09202e-07
8.85843e-07
-1.07757e-07
9.21265e-07
-1.06303e-07
9.56209e-07
-1.04843e-07
9.90676e-07
-1.03378e-07
1.02466e-06
-1.01908e-07
1.05817e-06
-1.00432e-07
1.09119e-06
-9.89454e-08
1.12373e-06
-9.74392e-08
1.15576e-06
-9.58988e-08
1.18727e-06
-9.43006e-08
1.21823e-06
-9.26075e-08
1.24859e-06
-9.07613e-08
1.27828e-06
-8.86703e-08
1.30718e-06
-8.61859e-08
1.33508e-06
-8.30612e-08
1.36169e-06
-7.88583e-08
1.38653e-06
-7.27912e-08
1.40893e-06
-6.32281e-08
1.42801e-06
-4.73503e-08
1.44428e-06
-1.77961e-08
3.63316e-08
1.46137e-06
-9.50437e-09
-3.11848e-08
-2.5471e-08
-1.30914e-08
-4.37974e-08
4.5306e-09
-6.37637e-08
2.04431e-08
-8.5401e-08
3.53137e-08
-1.08739e-07
4.93947e-08
-1.33909e-07
6.27765e-08
-1.61051e-07
7.54934e-08
-1.90288e-07
8.75773e-08
-2.21678e-07
9.90775e-08
-2.55187e-07
1.10055e-07
-2.90676e-07
1.20562e-07
-3.27917e-07
1.30616e-07
-3.6662e-07
1.40194e-07
-4.06453e-07
1.49229e-07
-4.47072e-07
1.57625e-07
-4.88144e-07
1.65274e-07
-5.29362e-07
1.72072e-07
-5.70458e-07
1.7793e-07
-6.11214e-07
1.82788e-07
-6.51461e-07
1.86617e-07
-6.9108e-07
1.89418e-07
-7.30001e-07
1.91223e-07
-7.68186e-07
1.92088e-07
-8.05631e-07
1.92089e-07
-8.4235e-07
1.91312e-07
-8.7837e-07
1.89852e-07
-9.13724e-07
1.87806e-07
-9.48442e-07
1.85269e-07
-9.8255e-07
1.82327e-07
-1.01607e-06
1.79062e-07
-1.04901e-06
1.75544e-07
-1.08138e-06
1.71833e-07
-1.11318e-06
1.67979e-07
-1.14442e-06
1.64024e-07
-1.17507e-06
1.59999e-07
-1.20514e-06
1.55931e-07
-1.23461e-06
1.51838e-07
-1.26347e-06
1.47734e-07
-1.29169e-06
1.43627e-07
-1.31927e-06
1.39521e-07
-1.34619e-06
1.35421e-07
-1.37242e-06
1.31324e-07
-1.39795e-06
1.27229e-07
-1.42276e-06
1.23134e-07
-1.44683e-06
1.19034e-07
-1.47013e-06
1.14925e-07
-1.49266e-06
1.10802e-07
-1.5144e-06
1.06663e-07
-1.53531e-06
1.02502e-07
-1.5554e-06
9.8316e-08
-1.57463e-06
9.41025e-08
-1.59299e-06
8.98589e-08
-1.61047e-06
8.55833e-08
-1.62704e-06
8.12745e-08
-1.6427e-06
7.6932e-08
-1.65743e-06
7.25558e-08
-1.67121e-06
6.81464e-08
-1.68403e-06
6.37048e-08
-1.69588e-06
5.92328e-08
-1.70675e-06
5.47322e-08
-1.71663e-06
5.02055e-08
-1.72551e-06
4.56554e-08
-1.73339e-06
4.10852e-08
-1.74025e-06
3.64984e-08
-1.7461e-06
3.18987e-08
-1.75094e-06
2.72906e-08
-1.75476e-06
2.26787e-08
-1.75756e-06
1.80685e-08
-1.75935e-06
1.34658e-08
-1.76013e-06
8.87703e-09
-1.7599e-06
4.30886e-09
-1.75864e-06
-2.3315e-10
-1.75636e-06
-4.74507e-09
-1.75303e-06
-9.22906e-09
-1.74866e-06
-1.369e-08
-1.74324e-06
-1.81323e-08
-1.73678e-06
-2.25566e-08
-1.72926e-06
-2.69618e-08
-1.72071e-06
-3.13459e-08
-1.71112e-06
-3.5706e-08
-1.7005e-06
-4.00395e-08
-1.68885e-06
-4.43434e-08
-1.67619e-06
-4.86146e-08
-1.66252e-06
-5.28505e-08
-1.64784e-06
-5.70481e-08
-1.63217e-06
-6.12048e-08
-1.61553e-06
-6.5318e-08
-1.5979e-06
-6.93854e-08
-1.57932e-06
-7.34046e-08
-1.55979e-06
-7.73733e-08
-1.53933e-06
-8.12897e-08
-1.51794e-06
-8.51517e-08
-1.49564e-06
-8.89574e-08
-1.47244e-06
-9.27051e-08
-1.44836e-06
-9.63929e-08
-1.42341e-06
-1.00019e-07
-1.39761e-06
-1.03582e-07
-1.37097e-06
-1.0708e-07
-1.34351e-06
-1.10512e-07
-1.31524e-06
-1.13875e-07
-1.28618e-06
-1.17167e-07
-1.25636e-06