/*--------------------------------*- C++ -*----------------------------------*\
| =========                 |                                                 |
| \\      /  F ield         | OpenFOAM: The Open Source CFD Toolbox           |
|  \\    /   O peration     | Version:  2412                                  |
|   \\  /    A nd           | Website:  www.openfoam.com                      |
|    \\/     M anipulation  |                                                 |
\*---------------------------------------------------------------------------*/
FoamFile
{
    version     2.0;
    format      ascii;
    arch        "LSB;label=32;scalar=64";
    class       volVectorField;
    location    "0.3";
    object      U;
}
// * * * * * * * * * * * * * * * * * * * * * * * * * * * * * * * * * * * * * //

dimensions      [0 1 -1 0 0 0 0];

internalField   nonuniform List<vector> 
12225
(
(0.377183 -0.200896 0)
(0.543962 -0.0519274 0)
(0.711051 -0.0340155 0)
(0.893989 -0.0304781 0)
(1.05913 -0.0297488 0)
(1.20888 -0.0284547 0)
(1.3462 -0.0265209 0)
(1.47051 -0.0245785 0)
(1.58227 -0.0227697 0)
(1.68275 -0.0210777 0)
(1.77313 -0.0194998 0)
(1.85436 -0.018028 0)
(1.92725 -0.0166407 0)
(1.9925 -0.0152959 0)
(2.05044 -0.0139696 0)
(2.10195 -0.0125093 0)
(2.14315 -0.0103403 0)
(2.19072 -0.0128215 0)
(0.933503 -0.0317784 0)
(1.05671 -0.0587111 0)
(1.23665 -0.0689019 0)
(1.42156 -0.0644872 0)
(1.58554 -0.0618159 0)
(1.73445 -0.0589705 0)
(1.87135 -0.0555693 0)
(1.99608 -0.0521828 0)
(2.1091 -0.0489416 0)
(2.21145 -0.0458529 0)
(2.30411 -0.0429314 0)
(2.38792 -0.0401626 0)
(2.46362 -0.0375046 0)
(2.53183 -0.0348779 0)
(2.59295 -0.0322213 0)
(2.64733 -0.0290846 0)
(2.6945 -0.0260635 0)
(2.73639 -0.015872 0)
(1.39962 -0.0846821 0)
(1.49179 -0.105679 0)
(1.65466 -0.10724 0)
(1.82261 -0.101944 0)
(1.97269 -0.0979937 0)
(2.1104 -0.0936574 0)
(2.23778 -0.0887467 0)
(2.35453 -0.0838048 0)
(2.46099 -0.0790043 0)
(2.55793 -0.0743916 0)
(2.64611 -0.0699925 0)
(2.7262 -0.0657877 0)
(2.79883 -0.0617179 0)
(2.86452 -0.0576757 0)
(2.92365 -0.0535292 0)
(2.97647 -0.0488556 0)
(3.02316 -0.0436264 0)
(3.06302 -0.0340876 0)
(1.89741 -0.115425 0)
(1.94623 -0.14331 0)
(2.07521 -0.144986 0)
(2.21748 -0.140771 0)
(2.34799 -0.135784 0)
(2.46975 -0.130052 0)
(2.58355 -0.123703 0)
(2.68871 -0.117218 0)
(2.78529 -0.110833 0)
(2.87379 -0.10465 0)
(2.95469 -0.0987116 0)
(3.02849 -0.0930001 0)
(3.09568 -0.0874441 0)
(3.15666 -0.0819137 0)
(3.21179 -0.0762268 0)
(3.26123 -0.0699593 0)
(3.30553 -0.062818 0)
(3.34315 -0.0517995 0)
(2.43108 -0.125831 0)
(2.44051 -0.169895 0)
(2.52881 -0.177416 0)
(2.64003 -0.176178 0)
(2.74682 -0.171238 0)
(2.84905 -0.16474 0)
(2.9462 -0.157388 0)
(3.03705 -0.149691 0)
(3.12131 -0.141979 0)
(3.1991 -0.134424 0)
(3.27069 -0.127101 0)
(3.33634 -0.120003 0)
(3.39638 -0.113058 0)
(3.45111 -0.106125 0)
(3.50082 -0.0989949 0)
(3.54562 -0.091258 0)
(3.58636 -0.0824792 0)
(3.62096 -0.0703878 0)
(2.99683 -0.123685 0)
(2.97698 -0.185374 0)
(3.02469 -0.201466 0)
(3.10204 -0.204961 0)
(3.18212 -0.201585 0)
(3.26199 -0.195269 0)
(3.33998 -0.187569 0)
(3.41427 -0.17918 0)
(3.48412 -0.170562 0)
(3.54932 -0.161981 0)
(3.60984 -0.153558 0)
(3.66574 -0.145314 0)
(3.71717 -0.13719 0)
(3.76431 -0.129049 0)
(3.80737 -0.120676 0)
(3.84642 -0.111703 0)
(3.8825 -0.101675 0)
(3.91303 -0.0890135 0)
(3.58832 -0.11451 0)
(3.5509 -0.190589 0)
(3.56321 -0.215901 0)
(3.60679 -0.225328 0)
(3.65876 -0.22502 0)
(3.71446 -0.219974 0)
(3.77143 -0.212703 0)
(3.82739 -0.204248 0)
(3.88115 -0.19524 0)
(3.93215 -0.186061 0)
(3.98011 -0.176904 0)
(4.02487 -0.167829 0)
(4.06641 -0.158804 0)
(4.10476 -0.149715 0)
(4.14007 -0.140365 0)
(4.17235 -0.130446 0)
(4.20271 -0.119567 0)
(4.22807 -0.106695 0)
(4.1988 -0.101769 0)
(4.15397 -0.187082 0)
(4.13919 -0.220716 0)
(4.15219 -0.236323 0)
(4.1767 -0.240156 0)
(4.20779 -0.237412 0)
(4.24285 -0.231384 0)
(4.27938 -0.223543 0)
(4.31587 -0.21472 0)
(4.35151 -0.205435 0)
(4.38575 -0.195967 0)
(4.41825 -0.186435 0)
(4.44883 -0.176848 0)
(4.4774 -0.167127 0)
(4.504 -0.157115 0)
(4.52859 -0.146579 0)
(4.55226 -0.135226 0)
(4.57142 -0.122426 0)
(4.82185 -0.0878122 0)
(4.77662 -0.176884 0)
(4.7439 -0.216856 0)
(4.73191 -0.237844 0)
(4.7318 -0.246144 0)
(4.73958 -0.246429 0)
(4.75307 -0.242356 0)
(4.77002 -0.235779 0)
(4.78884 -0.227729 0)
(4.80851 -0.218858 0)
(4.82835 -0.209541 0)
(4.84788 -0.199969 0)
(4.86675 -0.190203 0)
(4.88479 -0.180211 0)
(4.90194 -0.169892 0)
(4.91808 -0.159092 0)
(4.93426 -0.147628 0)
(4.94636 -0.135157 0)
(5.45146 -0.074113 0)
(5.4095 -0.16202 0)
(5.36682 -0.205842 0)
(5.33654 -0.230664 0)
(5.31636 -0.242922 0)
(5.30385 -0.246443 0)
(5.29762 -0.244759 0)
(5.29604 -0.239944 0)
(5.2977 -0.233174 0)
(5.3016 -0.225201 0)
(5.30701 -0.216492 0)
(5.31335 -0.207305 0)
(5.32022 -0.197761 0)
(5.32735 -0.187884 0)
(5.33461 -0.177633 0)
(5.3418 -0.16693 0)
(5.34992 -0.155702 0)
(5.35435 -0.143797 0)
(6.08167 -0.0613989 0)
(6.04411 -0.144182 0)
(5.99714 -0.189335 0)
(5.95494 -0.216181 0)
(5.92006 -0.231271 0)
(5.89157 -0.23765 0)
(5.86884 -0.238373 0)
(5.85102 -0.23553 0)
(5.83714 -0.230355 0)
(5.82639 -0.223644 0)
(5.81811 -0.215919 0)
(5.81174 -0.207496 0)
(5.80687 -0.198549 0)
(5.8032 -0.189157 0)
(5.80055 -0.179337 0)
(5.79866 -0.169077 0)
(5.79848 -0.158401 0)
(5.79494 -0.147288 0)
(6.65461 -0.0506074 0)
(6.62055 -0.126208 0)
(6.57305 -0.17059 0)
(6.52478 -0.197778 0)
(6.48114 -0.21424 0)
(6.44232 -0.2225 0)
(6.40817 -0.225057 0)
(6.37844 -0.223881 0)
(6.35267 -0.22019 0)
(6.33031 -0.214766 0)
(6.31089 -0.208138 0)
(6.29395 -0.200649 0)
(6.27915 -0.192509 0)
(6.26618 -0.183834 0)
(6.25487 -0.174686 0)
(6.24493 -0.165107 0)
(6.23731 -0.155156 0)
(6.22655 -0.145007 0)
(7.20973 -0.0406604 0)
(7.18016 -0.107397 0)
(7.13447 -0.149613 0)
(7.08343 -0.176147 0)
(7.03446 -0.192987 0)
(6.98882 -0.202368 0)
(6.94662 -0.20625 0)
(6.908 -0.206406 0)
(6.87294 -0.204009 0)
(6.8412 -0.199802 0)
(6.81251 -0.194288 0)
(6.78657 -0.187813 0)
(6.76312 -0.180602 0)
(6.74193 -0.172798 0)
(6.72285 -0.164492 0)
(6.70559 -0.155765 0)
(6.69105 -0.146685 0)
(6.67363 -0.137638 0)
(7.81811 -0.0310719 0)
(7.79338 -0.0861323 0)
(7.75173 -0.123852 0)
(7.70083 -0.148312 0)
(7.64927 -0.164352 0)
(7.59955 -0.173987 0)
(7.552 -0.178643 0)
(7.507 -0.179764 0)
(7.46483 -0.178434 0)
(7.42558 -0.175343 0)
(7.38917 -0.17095 0)
(7.35548 -0.165577 0)
(7.32436 -0.159448 0)
(7.29569 -0.152715 0)
(7.26938 -0.145487 0)
(7.24516 -0.137862 0)
(7.22389 -0.129933 0)
(7.20008 -0.122167 0)
(8.45855 -0.0222984 0)
(8.43893 -0.0637724 0)
(8.40342 -0.0942605 0)
(8.3561 -0.114683 0)
(8.30536 -0.12833 0)
(8.25484 -0.136943 0)
(8.20528 -0.14149 0)
(8.15716 -0.142972 0)
(8.11104 -0.142266 0)
(8.06723 -0.139974 0)
(8.02584 -0.136496 0)
(7.98689 -0.132115 0)
(7.95035 -0.127038 0)
(7.91618 -0.121415 0)
(7.88437 -0.115361 0)
(7.8547 -0.108976 0)
(7.82799 -0.102357 0)
(7.79912 -0.0959936 0)
(9.08866 -0.0143743 0)
(9.07383 -0.0417451 0)
(9.04561 -0.0628592 0)
(9.00497 -0.0772096 0)
(8.95897 -0.0866424 0)
(8.91169 -0.0925278 0)
(8.86421 -0.0955576 0)
(8.81708 -0.0963429 0)
(8.77099 -0.0954779 0)
(8.72647 -0.0934094 0)
(8.68381 -0.0904348 0)
(8.64316 -0.086764 0)
(8.60456 -0.0825578 0)
(8.56807 -0.0779409 0)
(8.53373 -0.0730146 0)
(8.50137 -0.0678745 0)
(8.47174 -0.0625895 0)
(8.4405 -0.0576673 0)
(9.63295 -0.00707676 0)
(9.6217 -0.0207175 0)
(9.59988 -0.0314145 0)
(9.5666 -0.0384045 0)
(9.52747 -0.0424488 0)
(9.48645 -0.044379 0)
(9.44473 -0.0446456 0)
(9.40277 -0.0435876 0)
(9.36114 -0.0415478 0)
(9.32042 -0.0388097 0)
(9.28098 -0.0355689 0)
(9.24301 -0.0319627 0)
(9.20664 -0.0280989 0)
(9.17196 -0.0240681 0)
(9.13903 -0.0199438 0)
(9.10778 -0.0158063 0)
(9.07875 -0.0116695 0)
(9.04896 -0.00802729 0)
(9.96404 0.000104006 0)
(9.95459 0.000153255 0)
(9.93649 0.000606837 0)
(9.90812 0.00184719 0)
(9.87423 0.00378636 0)
(9.83859 0.00623294 0)
(9.80247 0.00908251 0)
(9.76622 0.0122634 0)
(9.7303 0.0156915 0)
(9.6952 0.0192861 0)
(9.66123 0.0229846 0)
(9.62855 0.0267373 0)
(9.59722 0.0304984 0)
(9.56728 0.0342198 0)
(9.53876 0.0378595 0)
(9.51162 0.0413535 0)
(9.48601 0.0447267 0)
(9.46094 0.0475637 0)
(9.87499 0.00747067 0)
(9.86688 0.0217901 0)
(9.84987 0.0341989 0)
(9.82249 0.0443943 0)
(9.78959 0.0528004 0)
(9.75498 0.0598997 0)
(9.71993 0.0659892 0)
(9.68483 0.071284 0)
(9.65014 0.075981 0)
(9.61636 0.0802391 0)
(9.58381 0.0841661 0)
(9.55263 0.0878304 0)
(9.52287 0.0912742 0)
(9.49456 0.0945206 0)
(9.46768 0.0975787 0)
(9.44224 0.10043 0)
(9.41796 0.103112 0)
(9.39589 0.105344 0)
(9.28437 0.0159162 0)
(9.27065 0.046191 0)
(9.24578 0.071172 0)
(9.2098 0.0903912 0)
(9.16896 0.105208 0)
(9.12725 0.116825 0)
(9.08575 0.125923 0)
(9.04486 0.133045 0)
(9.00514 0.138704 0)
(8.96707 0.143304 0)
(8.93091 0.147124 0)
(8.89675 0.150353 0)
(8.86459 0.153132 0)
(8.8344 0.155559 0)
(8.8061 0.157706 0)
(8.77967 0.159622 0)
(8.75462 0.161356 0)
(8.73294 0.162762 0)
(8.47101 0.0260885 0)
(8.45236 0.0738031 0)
(8.4197 0.110339 0)
(8.37625 0.136872 0)
(8.32995 0.156518 0)
(8.28452 0.171127 0)
(8.24067 0.181731 0)
(8.19873 0.189288 0)
(8.15916 0.194658 0)
(8.12226 0.198468 0)
(8.08808 0.201143 0)
(8.05654 0.202991 0)
(8.02753 0.204242 0)
(8.0009 0.205067 0)
(7.97648 0.20559 0)
(7.95417 0.20591 0)
(7.93346 0.206084 0)
(7.91635 0.206072 0)
(7.51239 0.0385221 0)
(7.4866 0.1045 0)
(7.44644 0.150222 0)
(7.39953 0.181349 0)
(7.35393 0.203326 0)
(7.31179 0.218451 0)
(7.27312 0.228251 0)
(7.23799 0.234267 0)
(7.20651 0.237709 0)
(7.17856 0.23938 0)
(7.15389 0.239821 0)
(7.13219 0.239423 0)
(7.11317 0.238469 0)
(7.09656 0.237165 0)
(7.08209 0.235651 0)
(7.06956 0.234036 0)
(7.05845 0.232376 0)
(7.05052 0.230694 0)
(6.48931 0.0542241 0)
(6.45655 0.136899 0)
(6.41294 0.186946 0)
(6.37062 0.218548 0)
(6.33486 0.239382 0)
(6.30523 0.25203 0)
(6.281 0.25873 0)
(6.26177 0.261566 0)
(6.24694 0.261924 0)
(6.23585 0.260658 0)
(6.22789 0.258351 0)
(6.22254 0.255413 0)
(6.21935 0.25213 0)
(6.21796 0.248693 0)
(6.21804 0.245231 0)
(6.21937 0.241834 0)
(6.22148 0.238546 0)
(6.22579 0.235424 0)
(5.45712 0.0733889 0)
(5.41829 0.166488 0)
(5.37867 0.214113 0)
(5.35275 0.241937 0)
(5.33861 0.258324 0)
(5.33243 0.26608 0)
(5.33265 0.268253 0)
(5.33802 0.267175 0)
(5.34715 0.26416 0)
(5.35895 0.259993 0)
(5.37265 0.255204 0)
(5.38767 0.250149 0)
(5.40357 0.245052 0)
(5.42 0.240053 0)
(5.43671 0.235237 0)
(5.45353 0.230656 0)
(5.47012 0.226333 0)
(5.48764 0.222331 0)
(4.45282 0.0947768 0)
(4.41205 0.187409 0)
(4.39047 0.225931 0)
(4.39658 0.24639 0)
(4.41646 0.255913 0)
(4.44331 0.257814 0)
(4.47522 0.255564 0)
(4.51029 0.251177 0)
(4.54683 0.245633 0)
(4.58379 0.239528 0)
(4.62056 0.233258 0)
(4.6567 0.227067 0)
(4.69194 0.221093 0)
(4.7261 0.215413 0)
(4.75908 0.210066 0)
(4.79086 0.205067 0)
(4.82125 0.200418 0)
(4.85123 0.196181 0)
(3.50293 0.114452 0)
(3.47301 0.192919 0)
(3.48912 0.217645 0)
(3.54118 0.228883 0)
(3.60258 0.231457 0)
(3.66646 0.228823 0)
(3.73174 0.223817 0)
(3.79669 0.217707 0)
(3.85991 0.211096 0)
(3.92077 0.204383 0)
(3.97901 0.197821 0)
(4.03449 0.191551 0)
(4.0872 0.185643 0)
(4.13718 0.180125 0)
(4.18453 0.175002 0)
(4.22939 0.170261 0)
(4.27177 0.165892 0)
(4.31249 0.161967 0)
(2.62982 0.122983 0)
(2.63207 0.176388 0)
(2.70177 0.187968 0)
(2.80468 0.191083 0)
(2.90732 0.189109 0)
(3.00602 0.18459 0)
(3.10158 0.178916 0)
(3.19301 0.172731 0)
(3.27948 0.166438 0)
(3.36086 0.160289 0)
(3.43728 0.154431 0)
(3.50898 0.148938 0)
(3.57618 0.143834 0)
(3.63919 0.139119 0)
(3.69829 0.134778 0)
(3.75377 0.13079 0)
(3.80581 0.127131 0)
(3.85517 0.123895 0)
(1.85178 0.104826 0)
(1.90638 0.134438 0)
(2.03033 0.141897 0)
(2.17812 0.140513 0)
(2.31585 0.137036 0)
(2.4434 0.13292 0)
(2.56364 0.128101 0)
(2.67646 0.122988 0)
(2.78152 0.117941 0)
(2.87912 0.113114 0)
(2.96978 0.10858 0)
(3.05404 0.104373 0)
(3.13239 0.1005 0)
(3.20533 0.0969466 0)
(3.27331 0.0936929 0)
(3.33678 0.0907151 0)
(3.39606 0.0879781 0)
(3.45187 0.0855887 0)
(1.17533 0.04169 0)
(1.28238 0.0661054 0)
(1.43868 0.0889865 0)
(1.61658 0.0891765 0)
(1.78033 0.0862295 0)
(1.92914 0.0833306 0)
(2.0674 0.079833 0)
(2.19581 0.0761168 0)
(2.31428 0.072527 0)
(2.4234 0.0691483 0)
(2.52402 0.0660058 0)
(2.61694 0.0631152 0)
(2.70287 0.0604732 0)
(2.78247 0.0580633 0)
(2.85632 0.0558654 0)
(2.925 0.0538623 0)
(2.9889 0.0519924 0)
(3.04876 0.0503551 0)
(0.469485 0.226529 0)
(0.642364 0.0691629 0)
(0.788937 0.0480255 0)
(0.97245 0.04441 0)
(1.14912 0.0429717 0)
(1.30915 0.0416789 0)
(1.45686 0.039646 0)
(1.59323 0.0373307 0)
(1.71806 0.0351126 0)
(1.83211 0.0330646 0)
(1.93654 0.0311824 0)
(2.03239 0.0294639 0)
(2.12052 0.0279026 0)
(2.20173 0.0264857 0)
(2.27671 0.0251972 0)
(2.34611 0.0240299 0)
(2.41042 0.0229308 0)
(2.46997 0.0219787 0)
(0.00818901 -0.0167929 -2.69176e-20)
(0.0265204 -0.0283636 2.62821e-20)
(0.0457208 -0.0297206 0)
(0.061924 -0.0254387 0)
(0.0727945 -0.0183072 0)
(0.0780741 -0.0101727 -2.46533e-20)
(0.0776839 -0.00235383 0)
(0.0723376 0.00411178 0)
(0.0632348 0.00877366 0)
(0.0512221 0.0118147 0)
(0.0368975 0.0137754 2.40854e-20)
(0.0205988 0.0152257 0)
(0.00240411 0.0165821 0)
(-0.0177687 0.0181241 0)
(-0.0401148 0.0200148 0)
(-0.0648711 0.0223027 2.28581e-20)
(-0.0922362 0.0249584 0)
(-0.122362 0.0279095 0)
(-0.155334 0.0310621 0)
(-0.191162 0.0343087 0)
(-0.229774 0.0375337 0)
(-0.271024 0.0406221 0)
(-0.314694 0.0434675 0)
(-0.36051 0.0459797 1.94503e-20)
(-0.40815 0.0480904 -1.90603e-20)
(-0.457267 0.0497558 1.86866e-20)
(-0.5075 0.0509572 1.83304e-20)
(-0.558495 0.0517003 0)
(-0.609923 0.0520154 0)
(-0.661472 0.0519555 -1.73721e-20)
(-0.71284 0.0515886 -1.70881e-20)
(-0.763819 0.0509825 0)
(-0.814268 0.0501804 0)
(-0.864018 0.0492098 -1.63298e-20)
(-0.912945 0.0481043 0)
(-0.960949 0.0468954 0)
(-1.00795 0.0456114 1.56917e-20)
(-1.0539 0.0442765 0)
(-1.09874 0.0429108 1.53175e-20)
(-1.14246 0.0415303 3.0285e-20)
(-1.18503 0.0401474 0)
(-1.22644 0.0387712 0)
(-1.2667 0.0374082 0)
(-1.30581 0.0360627 0)
(-1.34376 0.034737 0)
(-1.38056 0.0334323 2.84135e-20)
(-1.41622 0.0321487 2.8126e-20)
(-1.45074 0.0308857 2.78423e-20)
(-1.48412 0.0296422 0)
(-1.51637 0.0284171 -2.72822e-20)
(-1.54749 0.0272088 0)
(-1.57748 0.026016 2.67263e-20)
(-1.60633 0.0248374 2.64479e-20)
(-1.63405 0.0236718 0)
(-1.66062 0.0225181 0)
(-1.68605 0.0213753 0)
(-1.71033 0.0202426 2.53166e-20)
(-1.73345 0.0191193 0)
(-1.75541 0.0180048 0)
(-1.7762 0.0168983 0)
(-1.79581 0.0157993 0)
(-1.81423 0.0147068 0)
(-1.83147 0.0136196 0)
(-1.8475 0.0125363 0)
(-1.86232 0.0114548 0)
(-1.87592 0.0103725 -2.25319e-20)
(-1.88829 0.00928607 0)
(-1.89942 0.00819151 0)
(-1.90929 0.00708394 2.14965e-20)
(-1.91787 0.0059583 2.11377e-20)
(-1.92515 0.00481108 0)
(-1.93108 0.00364544 -2.03993e-20)
(-1.93564 0.00248014 2.00198e-20)
(-1.93876 0.00135415 0)
(-1.94038 0.000315967 -1.9238e-20)
(-1.94069 -0.000591791 0)
(-1.93991 -0.00138698 0)
(-1.93802 -0.00213497 1.79969e-20)
(-1.93505 -0.00285602 0)
(-1.93101 -0.00355903 -1.7128e-20)
(-1.92591 -0.00424733 0)
(-1.91977 -0.00492231 1.62258e-20)
(-1.91258 -0.00558445 1.57623e-20)
(-1.90435 -0.00623387 1.52907e-20)
(-1.89508 -0.00687054 2.96222e-20)
(-1.88479 -0.00749436 -2.8647e-20)
(-1.87348 -0.00810523 0)
(-1.86117 -0.00870304 0)
(-1.84784 -0.00928772 0)
(-1.83353 -0.00985919 -2.45927e-20)
(-1.81823 -0.0104174 -2.35422e-20)
(-1.80195 -0.0109623 2.24777e-20)
(-1.78472 -0.0114939 0)
(-1.76653 -0.0120121 -2.03082e-20)
(-1.74739 -0.012517 -1.92041e-20)
(-1.72733 -0.0130086 -1.80876e-20)
(-1.70635 -0.0134867 0)
(-1.68446 -0.0139516 0)
(-1.66168 -0.014403 0)
(-1.63802 -0.0148411 -1.35087e-20)
(-1.61349 -0.0152659 0)
(-1.58811 -0.0156772 0)
(-1.56189 -0.0160753 9.97118e-21)
(-1.53485 -0.0164599 0)
(-1.507 -0.0168312 0)
(-1.47835 -0.017189 6.36334e-21)
(-1.44893 -0.0175333 0)
(-1.41875 -0.0178642 0)
(-1.38782 -0.0181814 -2.7032e-21)
(-1.35617 -0.018485 -1.47486e-21)
(-1.32381 -0.0187748 0)
(-1.29077 -0.0190509 -9.89774e-22)
(-1.25705 -0.0193131 0)
(-1.22268 -0.0195614 3.4598e-21)
(-1.18767 -0.0197956 0)
(-1.15206 -0.0200156 5.92879e-21)
(-1.11586 -0.0202214 7.16083e-21)
(-1.07909 -0.0204129 0)
(-1.04177 -0.02059 0)
(-1.00394 -0.0207526 0)
(-0.965598 -0.0209006 0)
(-0.926784 -0.021034 0)
(-0.88752 -0.0211528 0)
(-0.847829 -0.0212568 0)
(-0.807737 -0.0213461 1.68462e-20)
(-0.76727 -0.0214206 -1.80226e-20)
(-0.726453 -0.0214804 0)
(-0.685313 -0.0215254 0)
(-0.643876 -0.0215557 0)
(-0.602171 -0.0215714 0)
(-0.560224 -0.0215724 -4.7461e-20)
(-0.518063 -0.021559 0)
(-0.475715 -0.021531 5.18345e-20)
(-0.43321 -0.0214885 -5.39736e-20)
(-0.390574 -0.0214317 0)
(-0.347837 -0.0213603 0)
(-0.305029 -0.0212744 0)
(-0.262178 -0.0211735 6.21798e-20)
(-0.219317 -0.0210575 6.41372e-20)
(-0.176476 -0.0209245 0)
(-0.133689 -0.020771 6.79306e-20)
(-0.090989 -0.0205948 6.9765e-20)
(-0.0484063 -0.0203931 -7.1557e-20)
(-0.00596852 -0.0201416 0)
(0.036236 -0.0198026 0)
(0.0782105 -0.0194208 -7.49464e-20)
(0.119941 -0.0190431 0)
(0.161411 -0.018675 0)
(0.202612 -0.0183137 0)
(0.243537 -0.017957 0)
(0.284176 -0.0176034 7.7784e-20)
(0.32452 -0.0172523 7.82072e-20)
(0.364557 -0.0169034 0)
(0.404275 -0.0165567 7.89251e-20)
(0.443666 -0.0162126 0)
(0.482719 -0.0158713 0)
(0.521425 -0.0155332 7.97074e-20)
(0.559778 -0.0151987 0)
(0.59777 -0.0148681 8.00519e-20)
(0.635396 -0.014542 0)
(0.672653 -0.0142205 0)
(0.709537 -0.0139039 8.03333e-20)
(0.746046 -0.0135924 0)
(0.782177 -0.0132857 8.03797e-20)
(0.817928 -0.0129837 0)
(0.853295 -0.0126857 0)
(0.888274 -0.0123905 0)
(0.922854 -0.0120965 -8.01782e-20)
(0.957019 -0.0118007 0)
(0.990741 -0.011499 7.99515e-20)
(1.02398 -0.0111846 0)
(1.05666 -0.010847 0)
(1.08867 -0.0104689 0)
(1.11981 -0.0100212 0)
(1.14979 -0.00944642 0)
(1.17789 -0.00863768 0)
(1.20339 -0.00727362 0)
(1.22167 -0.00458027 -1.58022e-19)
(1.23555 0.00256268 0)
(1.18968 0.0176731 0)
(0.00979487 -0.0561993 7.93629e-20)
(0.0226165 -0.0622884 -7.50357e-20)
(0.0276953 -0.0486205 0)
(0.0276558 -0.0319092 4.47123e-20)
(0.023503 -0.0151569 0)
(0.0158104 0.000557834 2.11562e-20)
(0.00519102 0.0145603 -4.15882e-20)
(-0.00830509 0.0264449 -4.08872e-20)
(-0.0248324 0.0362138 0)
(-0.044442 0.0442848 -3.9333e-20)
(-0.0671583 0.0512637 -1.93139e-20)
(-0.092974 0.0577324 0)
(-0.121857 0.064118 0)
(-0.153745 0.070668 0)
(-0.188542 0.0774802 0)
(-0.226121 0.084526 -1.74079e-20)
(-0.26631 0.0916814 0)
(-0.308889 0.0987681 3.3215e-20)
(-0.353587 0.105586 0)
(-0.400084 0.111937 0)
(-0.448027 0.117641 -3.10555e-20)
(-0.497045 0.12255 0)
(-0.546765 0.126558 2.97269e-20)
(-0.596826 0.129602 -1.45954e-20)
(-0.646895 0.13166 1.42982e-20)
(-0.696675 0.132757 -1.40168e-20)
(-0.745911 0.132946 -1.37516e-20)
(-0.794398 0.132312 0)
(-0.841976 0.130955 0)
(-0.888526 0.128993 1.30493e-20)
(-0.933959 0.126551 -1.27755e-20)
(-0.978212 0.123742 0)
(-1.02124 0.120653 0)
(-1.06303 0.117355 1.22965e-20)
(-1.10358 0.113912 0)
(-1.14289 0.110378 0)
(-1.181 0.106799 -1.18318e-20)
(-1.21792 0.103209 0)
(-1.25367 0.0996371 1.14847e-20)
(-1.2883 0.0961027 -2.2851e-20)
(-1.32183 0.0926203 0)
(-1.35428 0.0891992 0)
(-1.38567 0.0858444 -4.40887e-20)
(-1.41602 0.0825576 -4.36231e-20)
(-1.44535 0.0793386 -4.31666e-20)
(-1.47367 0.0761851 2.12889e-20)
(-1.501 0.0730941 -2.12057e-20)
(-1.52733 0.0700615 -6.28196e-20)
(-1.55269 0.0670833 4.13986e-20)
(-1.57706 0.0641552 2.05464e-20)
(-1.60045 0.0612734 0)
(-1.62286 0.0584339 -2.01084e-20)
(-1.6443 0.0556336 1.97724e-20)
(-1.66474 0.0528696 0)
(-1.68421 0.0501392 0)
(-1.70267 0.0474407 0)
(-1.72015 0.0447722 -1.89907e-20)
(-1.73662 0.0421327 0)
(-1.75208 0.0395211 3.69708e-20)
(-1.76654 0.0369368 0)
(-1.77997 0.0343793 3.60286e-20)
(-1.79238 0.0318482 0)
(-1.80377 0.0293431 -3.50562e-20)
(-1.81412 0.0268636 0)
(-1.82344 0.0244089 3.40502e-20)
(-1.83172 0.0219781 -1.67507e-20)
(-1.83896 0.0195701 0)
(-1.84517 0.0171831 -3.24727e-20)
(-1.85035 0.0148155 -1.59682e-20)
(-1.8545 0.0124652 -1.56867e-20)
(-1.85766 0.0101299 0)
(-1.85985 0.0078094 -1.51234e-20)
(-1.86113 0.00551427 -1.48121e-20)
(-1.86156 0.00327682 0)
(-1.86123 0.00114427 1.41991e-20)
(-1.86004 -0.000862173 -2.78078e-20)
(-1.85784 -0.00276226 0)
(-1.85463 -0.00459549 -1.3236e-20)
(-1.85038 -0.00637767 0)
(-1.84511 -0.00811764 3.77754e-20)
(-1.83879 -0.00981894 0)
(-1.83145 -0.011483 -3.57235e-20)
(-1.82308 -0.0131102 -1.15263e-20)
(-1.81369 -0.0147003 1.12719e-20)
(-1.80329 -0.0162532 2.18341e-20)
(-1.79187 -0.0177684 -2.11143e-20)
(-1.77945 -0.0192457 0)
(-1.76604 -0.0206848 0)
(-1.75163 -0.0220853 0)
(-1.73625 -0.0234473 5.38328e-20)
(-1.7199 -0.0247705 1.70666e-20)
(-1.70259 -0.026055 -1.62779e-20)
(-1.68432 -0.0273007 0)
(-1.66512 -0.0285076 -1.50215e-20)
(-1.64499 -0.0296758 1.38648e-20)
(-1.62394 -0.0308055 1.30457e-20)
(-1.60198 -0.0318966 0)
(-1.57913 -0.0329494 0)
(-1.5554 -0.0339638 0)
(-1.53079 -0.0349402 9.70539e-21)
(-1.50534 -0.0358785 0)
(-1.47904 -0.036779 -1.64384e-20)
(-1.45191 -0.0376419 -2.18751e-20)
(-1.42397 -0.0384672 1.30157e-20)
(-1.39523 -0.0392551 0)
(-1.36571 -0.0400058 5.01655e-21)
(-1.33542 -0.0407193 0)
(-1.30439 -0.0413958 6.08885e-21)
(-1.27261 -0.0420352 -2.41905e-21)
(-1.24013 -0.0426378 -1.54949e-21)
(-1.20694 -0.0432035 0)
(-1.17307 -0.0437325 1.59968e-21)
(-1.13855 -0.0442249 -2.64378e-21)
(-1.10338 -0.0446807 -2.45609e-21)
(-1.06759 -0.0451 0)
(-1.03119 -0.0454828 -4.20268e-21)
(-0.994221 -0.0458292 -1.46829e-20)
(-0.95669 -0.0461393 0)
(-0.918622 -0.0464134 -1.30642e-20)
(-0.88004 -0.0466514 -1.478e-20)
(-0.840968 -0.0468536 -1.64869e-20)
(-0.801429 -0.0470201 0)
(-0.761448 -0.0471512 0)
(-0.721048 -0.0472471 0)
(-0.680256 -0.0473082 1.13284e-20)
(-0.639097 -0.0473346 1.27001e-20)
(-0.597597 -0.0473269 0)
(-0.555782 -0.0472853 2.80999e-20)
(-0.513679 -0.0472105 2.96987e-20)
(-0.471315 -0.0471027 0)
(-0.428717 -0.0469625 3.33815e-20)
(-0.385912 -0.0467905 6.87671e-20)
(-0.342929 -0.0465871 -3.64389e-20)
(-0.299794 -0.0463529 -3.68745e-20)
(-0.256537 -0.0460883 0)
(-0.213185 -0.0457935 0)
(-0.169767 -0.0454688 0)
(-0.126313 -0.045114 -4.3685e-20)
(-0.0828504 -0.0447277 4.40475e-20)
(-0.0394107 -0.0443089 9.18175e-20)
(0.00397628 -0.0438557 -4.76041e-20)
(0.0472793 -0.0433673 4.758e-20)
(0.0904699 -0.0428479 4.9363e-20)
(0.133522 -0.0423008 0)
(0.176407 -0.0417126 0)
(0.219116 -0.0410894 -5.07764e-20)
(0.261627 -0.0404541 0)
(0.303919 -0.0398171 0)
(0.345974 -0.03918 1.06566e-19)
(0.387776 -0.0385421 0)
(0.429313 -0.0379027 5.41052e-20)
(0.470571 -0.0372614 -5.54243e-20)
(0.511538 -0.0366186 0)
(0.552202 -0.0359747 5.57127e-20)
(0.592552 -0.0353308 0)
(0.632579 -0.0346877 0)
(0.672274 -0.0340465 -5.77042e-20)
(0.711631 -0.0334083 1.15522e-19)
(0.750642 -0.0327741 -5.8423e-20)
(0.789303 -0.032145 0)
(0.82761 -0.0315218 0)
(0.865561 -0.0309052 5.87566e-20)
(0.903153 -0.0302956 0)
(0.940384 -0.0296929 5.92683e-20)
(0.977253 -0.0290967 0)
(1.01376 -0.0285055 0)
(1.04989 -0.0279169 0)
(1.08564 -0.0273269 6.04933e-20)
(1.12099 -0.0267291 0)
(1.15593 -0.0261135 -6.07308e-20)
(1.1904 -0.0254645 0)
(1.22433 -0.0247578 0)
(1.25762 -0.0239528 1.21571e-19)
(1.29009 -0.0229817 -1.2172e-19)
(1.32146 -0.0217147 0)
(1.35114 -0.0199099 0)
(1.37854 -0.0169321 0)
(1.40095 -0.0116037 3.68817e-19)
(1.42095 0.000702813 0)
(1.42338 0.0255299 -2.49488e-19)
(0.00389329 -0.0792296 -9.36673e-23)
(0.00368079 -0.064874 9.65844e-20)
(-0.00343561 -0.0389745 0)
(-0.0135029 -0.0145549 -8.139e-20)
(-0.0261886 0.00792671 0)
(-0.041199 0.0284432 0)
(-0.0584552 0.0470474 3.64632e-23)
(-0.0780146 0.0638044 3.46985e-20)
(-0.100026 0.0788456 3.38525e-20)
(-0.124642 0.0924451 3.31417e-20)
(-0.151953 0.104985 0)
(-0.181953 0.116851 0)
(-0.21454 0.128332 -3.09429e-20)
(-0.24953 0.139575 -6.04767e-20)
(-0.286671 0.150584 5.90843e-20)
(-0.325664 0.161245 0)
(-0.366178 0.171376 5.63647e-20)
(-0.407865 0.180756 -2.75507e-20)
(-0.450377 0.189168 0)
(-0.493378 0.196419 5.25128e-20)
(-0.536557 0.202364 2.56651e-20)
(-0.579639 0.206907 -5.01431e-20)
(-0.622393 0.210016 -2.45165e-20)
(-0.664635 0.211708 0)
(-0.706224 0.212055 4.6939e-20)
(-0.747063 0.211162 4.59685e-20)
(-0.787091 0.209168 0)
(-0.826275 0.206223 4.41712e-20)
(-0.864606 0.20249 0)
(-0.902085 0.198126 4.25549e-20)
(-0.93872 0.193279 2.09089e-20)
(-0.974521 0.188081 0)
(-1.0095 0.18264 0)
(-1.04367 0.177047 0)
(-1.07704 0.171376 0)
(-1.10964 0.165686 0)
(-1.14147 0.160021 0)
(-1.17254 0.154416 3.75082e-20)
(-1.20286 0.148894 -5.55245e-20)
(-1.23243 0.143471 0)
(-1.26127 0.138155 0)
(-1.28936 0.132951 0)
(-1.3167 0.127858 7.75246e-23)
(-1.3433 0.122872 3.47541e-20)
(-1.36914 0.117989 6.85742e-20)
(-1.39422 0.113202 -6.77364e-20)
(-1.41853 0.108506 -3.34151e-20)
(-1.44207 0.103892 3.30912e-20)
(-1.46481 0.0993536 -8.13566e-23)
(-1.48675 0.0948852 3.2211e-20)
(-1.50789 0.0904805 0)
(-1.5282 0.0861345 3.14246e-20)
(-1.54768 0.0818427 -7.41893e-23)
(-1.56631 0.0776014 0)
(-1.58408 0.0734074 0)
(-1.60098 0.0692587 -2.98612e-20)
(-1.617 0.0651533 0)
(-1.63213 0.0610901 0)
(-1.64635 0.0570686 2.8622e-20)
(-1.65966 0.0530883 5.65497e-20)
(-1.67205 0.0491495 -2.79155e-20)
(-1.6835 0.0452524 0)
(-1.694 0.0413977 2.70859e-20)
(-1.70356 0.0375861 0)
(-1.71217 0.0338186 2.6187e-20)
(-1.71982 0.0300964 2.58056e-20)
(-1.72651 0.026421 -5.0707e-20)
(-1.73224 0.0227946 -2.49065e-20)
(-1.73701 0.0192203 0)
(-1.74084 0.0157033 4.80474e-20)
(-1.74372 0.0122506 0)
(-1.74568 0.00887252 6.93117e-20)
(-1.74671 0.00558173 4.5282e-20)
(-1.74682 0.00239012 4.43245e-20)
(-1.746 -0.000700682 -4.33472e-20)
(-1.74422 -0.00371297 6.35045e-20)
(-1.74144 -0.00666597 0)
(-1.73766 -0.00955961 0)
(-1.73288 -0.0123945 -3.93234e-20)
(-1.72711 -0.0151708 -5.7369e-20)
(-1.72033 -0.0178885 0)
(-1.71256 -0.0205469 1.80145e-20)
(-1.70379 -0.0231456 0)
(-1.69403 -0.0256839 -5.09194e-20)
(-1.68328 -0.0281609 1.72549e-22)
(-1.67156 -0.0305761 -1.83314e-22)
(-1.65886 -0.0329288 3.06532e-20)
(-1.64519 -0.0352186 0)
(-1.63057 -0.037445 -2.8362e-20)
(-1.61499 -0.0396079 2.2479e-22)
(-1.59847 -0.041707 0)
(-1.58102 -0.0437423 0)
(-1.56264 -0.0457137 0)
(-1.54334 -0.0476213 2.21807e-20)
(-1.52315 -0.0494652 0)
(-1.50205 -0.0512456 0)
(-1.48008 -0.0529627 0)
(-1.45724 -0.0546167 0)
(-1.43353 -0.0562077 0)
(-1.40898 -0.0577361 1.50454e-20)
(-1.3836 -0.059202 0)
(-1.3574 -0.0606057 1.21953e-20)
(-1.33039 -0.0619475 1.09202e-20)
(-1.30259 -0.0632278 -9.64102e-21)
(-1.27401 -0.0644467 0)
(-1.24466 -0.0656045 -7.07311e-21)
(-1.21458 -0.0667015 0)
(-1.18375 -0.0677378 -4.49675e-21)
(-1.15222 -0.0687137 3.20706e-21)
(-1.11998 -0.0696292 6.5083e-21)
(-1.08707 -0.0704846 0)
(-1.05349 -0.0712801 -1.20458e-21)
(-1.01927 -0.0720159 -1.1625e-21)
(-0.984419 -0.0726922 0)
(-0.948965 -0.0733091 -8.2198e-21)
(-0.912925 -0.0738668 -1.07649e-20)
(-0.87632 -0.0743656 2.03567e-20)
(-0.839171 -0.0748057 0)
(-0.801499 -0.0751874 9.58021e-21)
(-0.763328 -0.0755111 1.08325e-20)
(-0.724678 -0.075777 3.54048e-20)
(-0.685575 -0.0759855 0)
(-0.646041 -0.0761371 0)
(-0.606101 -0.0762324 0)
(-0.56578 -0.0762719 1.61332e-20)
(-0.525102 -0.0762562 0)
(-0.484092 -0.076186 0)
(-0.442778 -0.0760621 -2.05191e-20)
(-0.401184 -0.0758853 -2.16787e-20)
(-0.359337 -0.0756564 0)
(-0.317265 -0.0753764 0)
(-0.274992 -0.0750462 -5.01491e-20)
(-0.232548 -0.0746668 0)
(-0.189958 -0.074239 5.45281e-20)
(-0.14725 -0.0737637 5.58676e-20)
(-0.104452 -0.0732416 0)
(-0.0615916 -0.072673 0)
(-0.0186959 -0.0720585 -6.20989e-20)
(0.0242069 -0.0713984 -7.71046e-22)
(0.0670885 -0.0706922 -7.57802e-22)
(0.109922 -0.0699396 0)
(0.152679 -0.069142 -1.37435e-19)
(0.195336 -0.0683039 0)
(0.237871 -0.0674332 0)
(0.280276 -0.0665348 0)
(0.322535 -0.0656106 7.43733e-20)
(0.364623 -0.0646678 0)
(0.406516 -0.0637136 -1.52308e-19)
(0.448191 -0.0627511 -7.79515e-20)
(0.489628 -0.0617813 0)
(0.530812 -0.060805 -8.01163e-20)
(0.571728 -0.0598229 0)
(0.612362 -0.0588359 0)
(0.652703 -0.0578455 -2.48006e-19)
(0.692739 -0.0568531 1.66778e-19)
(0.732462 -0.0558607 0)
(0.771862 -0.0548699 1.70168e-19)
(0.810933 -0.0538826 -8.63776e-20)
(0.849669 -0.0529005 0)
(0.888065 -0.0519253 0)
(0.926118 -0.0509584 0)
(0.963824 -0.0500008 -2.6644e-19)
(1.00118 -0.0490534 0)
(1.03819 -0.048116 -9.0274e-20)
(1.07485 -0.0471879 0)
(1.11116 -0.0462669 0)
(1.14711 -0.0453492 0)
(1.18269 -0.0444283 0)
(1.21789 -0.0434942 0)
(1.25268 -0.0425311 0)
(1.28703 -0.0415145 -1.86019e-19)
(1.32087 -0.040406 0)
(1.3541 -0.0391438 -9.40139e-20)
(1.38655 -0.0376241 2.82354e-19)
(1.418 -0.0356608 0)
(1.44798 -0.0329138 0)
(1.47607 -0.0286411 -1.90271e-19)
(1.50065 -0.0215293 -1.91983e-19)
(1.52379 -0.00785896 1.93392e-19)
(1.53837 0.0182947 1.96074e-19)
(-0.00439804 -0.0719742 -1.5472e-19)
(-0.0154005 -0.0429237 -1.39101e-19)
(-0.0305902 -0.0115155 -8.19513e-20)
(-0.0473341 0.0169047 -3.71639e-20)
(-0.0657793 0.0429972 0)
(-0.0857747 0.0671499 6.60036e-20)
(-0.107347 0.0895418 -3.17401e-20)
(-0.130623 0.110282 0)
(-0.155737 0.129496 -3.00284e-20)
(-0.182781 0.147363 0)
(-0.211772 0.164097 5.71251e-20)
(-0.242635 0.179888 0)
(-0.275207 0.194853 2.72285e-20)
(-0.309254 0.209011 5.31369e-20)
(-0.344495 0.222285 -5.18395e-20)
(-0.380626 0.234529 0)
(-0.417342 0.245564 -4.93233e-20)
(-0.454355 0.255209 0)
(-0.491406 0.263312 0)
(-0.528278 0.269764 -4.57906e-20)
(-0.564796 0.274512 0)
(-0.600835 0.277561 -6.41542e-23)
(-0.636308 0.278969 0)
(-0.67117 0.278841 0)
(-0.705403 0.277314 7.22614e-23)
(-0.739014 0.274549 -3.9816e-20)
(-0.772021 0.270719 -3.90408e-20)
(-0.804454 0.266001 -3.81703e-20)
(-0.83634 0.260562 0)
(-0.867706 0.254562 -7.34264e-20)
(-0.898572 0.248142 0)
(-0.928953 0.241424 -3.53888e-20)
(-0.958855 0.23451 0)
(-0.988284 0.227485 0)
(-1.01724 0.220415 3.35968e-20)
(-1.04571 0.213353 0)
(-1.0737 0.206337 -3.25341e-20)
(-1.10119 0.199397 5.83431e-25)
(-1.12817 0.192551 6.31206e-20)
(-1.15462 0.185811 -6.21956e-20)
(-1.18054 0.179184 0)
(-1.2059 0.17267 0)
(-1.23068 0.166267 -2.97879e-20)
(-1.25488 0.159972 0)
(-1.27846 0.153779 -2.90325e-20)
(-1.30141 0.14768 2.86483e-20)
(-1.32372 0.141669 2.82715e-20)
(-1.34537 0.135738 0)
(-1.36633 0.129881 -2.7536e-20)
(-1.3866 0.124091 -2.71753e-20)
(-1.40614 0.118364 5.3581e-20)
(-1.42495 0.112693 -2.64641e-20)
(-1.44301 0.107076 -2.61121e-20)
(-1.4603 0.101509 0)
(-1.47681 0.0959902 0)
(-1.49251 0.0905176 2.50622e-20)
(-1.5074 0.0850906 0)
(-1.52146 0.079709 0)