/*--------------------------------*- C++ -*----------------------------------*\
| =========                 |                                                 |
| \\      /  F ield         | OpenFOAM: The Open Source CFD Toolbox           |
|  \\    /   O peration     | Version:  2412                                  |
|   \\  /    A nd           | Website:  www.openfoam.com                      |
|    \\/     M anipulation  |                                                 |
\*---------------------------------------------------------------------------*/
FoamFile
{
    version     2.0;
    format      ascii;
    arch        "LSB;label=32;scalar=64";
    class       volScalarField;
    location    "0";
    object      T_0_0_0;
}
// * * * * * * * * * * * * * * * * * * * * * * * * * * * * * * * * * * * * * //

dimensions      [0 0 0 1 0 0 0];

internalField   nonuniform List<scalar> 
2000
(
1.321248677051966e-14
1.431144189589748e-14
1.550025305484061e-14
1.678613670993794e-14
1.817687805600047e-14
1.968087495852917e-14
2.130718521589659e-14
2.306557739108611e-14
2.496658547658724e-14
2.70215676750463e-14
2.924276959861026e-14
3.164339221166653e-14
3.423766486496629e-14
3.704092379403498e-14
4.006969648142308e-14
4.334179231085829e-14
4.687639997184799e-14
5.069419210588143e-14
5.481743772023801e-14
5.927012293268259e-14
6.407808065015415e-14
6.926912982714776e-14
7.487322499498543e-14
8.092261680180359e-14
8.745202435503926e-14
9.449882021370254e-14
1.021032289370172e-13
1.103085401593308e-13
1.191613372288401e-13
1.287117425198757e-13
1.390136806056082e-13
1.501251605603552e-13
1.621085787485003e-13
1.750310435508634e-13
1.889647235793882e-13
2.039872210378255e-13
2.201819720000128e-13
2.376386754988866e-13
2.564537534490057e-13
2.767308435636233e-13
2.985813275747976e-13
3.221248972222192e-13
3.474901606440803e-13
3.748152919819486e-13
4.042487272020682e-13
4.35949909338478e-13
4.700900865795983e-13
5.068531668503948e-13
5.464366327877497e-13
5.890525212681355e-13
6.349284719252825e-13
6.843088493921314e-13
7.374559443172413e-13
7.946512585421226e-13
8.561968801839857e-13
9.224169547494848e-13
9.936592588106331e-13
1.070296883205693e-12
1.152730033187142e-12
1.241387953427362e-12
1.336730986312632e-12
1.439252772508767e-12
1.549482603369783e-12
1.667987935386273e-12
1.795377077535002e-12
1.932302063097969e-12
2.079461718270663e-12
2.237604940677568e-12
2.407534201761901e-12
2.590109287917996e-12
2.786251296193352e-12
2.996946901404681e-12
3.223252912593642e-12
3.466301137896558e-12
3.727303578121049e-12
4.007557970617894e-12
4.308453706410893e-12
4.631478145006266e-12
4.978223352852676e-12
5.350393293065699e-12
5.749811495775895e-12
6.17842924030876e-12
6.638334282369803e-12
7.131760161488823e-12
7.661096126187461e-12
8.228897716675302e-12
8.83789804736443e-12
9.491019834124569e-12
1.019138821399264e-11
1.094234440800959e-11
1.174746028099097e-11
1.261055385536403e-11
1.353570583971985e-11
1.452727723646256e-11
1.558992809688551e-11
1.672863749619051e-11
1.794872480539505e-11
1.925587234176564e-11
2.065614948438293e-11
2.215603834670061e-11
2.376246110352832e-11
2.548280907575624e-11
2.732497368237476e-11
2.929737937593452e-11
3.140901868457239e-11
3.366948949109995e-11
3.608903468747332e-11
3.867858435119096e-11
4.144980059892299e-11
4.441512528187269e-11
4.75878306971528e-11
5.098207349973597e-11
5.461295201047321e-11
5.849656712713556e-11
6.265008705765276e-11
6.709181610752366e-11
7.184126776696824e-11
7.691924235772863e-11
8.234790951454234e-11
8.815089579231483e-11
9.435337770686348e-11
1.00982180534948e-10
1.080658832180613e-10
1.15634929734322e-10
1.237217473237155e-10
1.323608719740249e-10
1.415890815980871e-10
1.514455373575541e-10
1.619719336143009e-10
1.732126570178454e-10
1.852149552660902e-10
1.980291161069015e-10
2.117086571801698e-10
2.26310527333667e-10
2.41895320081582e-10
2.58527499911998e-10
2.762756421891948e-10
2.952126874379367e-10
3.15416210841022e-10
3.369687078270827e-10
3.599578966744813e-10
3.844770391080002e-10
4.10625279918917e-10
4.385080066955991e-10
4.682372308113463e-10
4.999319908788365e-10
5.337187799464691e-10
5.697319977812798e-10
6.081144296559867e-10
6.490177531344823e-10
6.926030744306736e-10
7.390414960004633e-10
7.885147171156621e-10
8.41215669262455e-10
8.973491883053505e-10
9.571327254610767e-10
1.020797099235572e-09
1.088587290591297e-09
1.160763283732111e-09
1.237600955018776e-09
1.319393012660521e-09
1.406449989966689e-09
1.499101295088453e-09
1.59769632033341e-09
1.702605614296304e-09
1.814222120217732e-09
1.932962484159238e-09
2.059268436768508e-09
2.193608252603048e-09
2.336478291184167e-09
2.488404624167363e-09
2.649944753238832e-09
2.821689423583113e-09
3.004264538012928e-09
3.198333177110293e-09
3.404597730998536e-09
3.623802148647832e-09
3.856734310913679e-09
4.104228533818669e-09
4.367168208912987e-09
4.646488587890124e-09
4.943179718990565e-09
5.258289543100248e-09
5.59292715784057e-09
5.948266258356147e-09
6.325548763934421e-09
6.726088640038226e-09
7.15127592580122e-09
7.602580977525123e-09
8.08155893923032e-09
8.589854451845662e-09
9.129206613184172e-09
9.701454201433962e-09
1.030854117550857e-08
1.095252246623454e-08
1.163557007302603e-08
1.235997948138952e-08
1.312817641733174e-08
1.394272395550316e-08
1.480632999870251e-08
1.572185514719704e-08
1.669232097717797e-08
1.772091874857203e-08
1.881101856337225e-08
1.996617899663466e-08
2.119015722330996e-08
2.248691966514954e-08
2.3860653183041e-08
2.531577684128797e-08
2.685695427156121e-08
2.848910666551443e-08
3.021742642636754e-08
3.204739151113621e-08
3.398478049661718e-08
3.603568840372062e-08
3.820654331629596e-08
4.050412383220998e-08
4.293557738611799e-08
4.550843948511694e-08
4.823065390028731e-08
5.11105938590354e-08
5.415708428511089e-08
5.737942513522119e-08
6.078741588331931e-08
6.439138120583269e-08
6.820219792343111e-08
7.223132325731741e-08
7.649082446052347e-08
8.099340988728967e-08
8.57524615662869e-08
9.078206934624913e-08
9.60970666855008e-08
1.017130681598448e-07
1.076465087664586e-07
1.139146851046758e-07
1.205357985179075e-07
1.275290002844643e-07
1.349144389487184e-07
1.427133098877382e-07
1.509479072125452e-07
1.59641678107124e-07
1.688192797125772e-07
1.785066386681659e-07
1.88731013425516e-07
1.99521059456942e-07
2.109068974837576e-07
2.229201848553881e-07
2.355941902154463e-07
2.489638715962056e-07
2.630659580886266e-07
2.77939035240797e-07
2.936236343437082e-07
3.101623257694504e-07
3.275998165334037e-07
3.459830522585646e-07
3.653613237271305e-07
3.857863782114544e-07
4.073125357839588e-07
4.299968108131098e-07
4.538990388605032e-07
4.79082009202064e-07
5.05611603205062e-07
5.335569388008876e-07
5.629905213029755e-07
5.939884008280071e-07
6.26630336588526e-07
6.609999683346117e-07
6.971849952326053e-07
7.352773624793135e-07
7.753734559609597e-07
8.175743052772836e-07
8.619857954627427e-07
9.087188877485207e-07
9.578898497215739e-07
1.009620495249018e-06
1.064038434549856e-06
1.121277334808618e-06
1.181477191740087e-06
1.24478461252764e-06
1.311353110573188e-06
1.381343412510781e-06
1.454923777952445e-06
1.532270332449725e-06
1.613567414171449e-06
1.699007934814863e-06
1.788793755284393e-06
1.883136076690285e-06
1.982255847237573e-06
2.086384185594581e-06
2.19576282134925e-06
2.310644553181878e-06
2.431293725402457e-06
2.557986723522347e-06
2.691012489550649e-06
2.830673057728665e-06
2.977284111436772e-06
3.131175562033123e-06
3.292692150404858e-06
3.462194072039322e-06
3.640057626445014e-06
3.826675891779867e-06
4.022459425568402e-06
4.227836992417572e-06
4.443256319667013e-06
4.669184881938848e-06
4.906110715579108e-06
5.154543264013245e-06
5.415014255067556e-06
5.688078611338658e-06
5.974315394724955e-06
6.27432878626501e-06
6.58874910246071e-06
6.918233849296521e-06
7.26346881519917e-06
7.625169204217183e-06
8.004080810735206e-06
8.400981237072665e-06
8.816681155354395e-06
9.252025615077109e-06
9.70789539783353e-06
1.018520842069534e-05
1.068492118979456e-05
1.120803030568353e-05
1.175557402209356e-05
1.232863385975473e-05
1.292833627698001e-05
1.355585439876105e-05
1.421240980616395e-05
1.489927438786042e-05
1.561777225567069e-05
1.636928172604316e-05
1.715523736943917e-05
1.797713212963777e-05
1.883651951502496e-05
1.973501586397553e-05
2.067430268648672e-05
2.16561290842703e-05
2.268231425155947e-05
2.375475005893446e-05
2.487540372252673e-05
2.604632056100174e-05
2.726962684278495e-05
2.854753272603361e-05
2.988233529391938e-05
3.127642168783065e-05
3.273227234116431e-05
3.425246431641971e-05
3.583967474837019e-05
3.749668439613156e-05
3.922638130701018e-05
4.103176459505689e-05
4.291594833731137e-05
4.488216559077882e-05
4.693377253322452e-05
4.907425273093507e-05
5.130722153664378e-05
5.363643062086906e-05
5.606577263997218e-05
5.859928604429358e-05
6.124116002977074e-05
6.399573963650304e-05
6.686753099777698e-05
6.986120674311148e-05
7.298161155893979e-05
7.623376791058978e-05
7.962288192927487e-05
8.315434946785458e-05
8.683376232917586e-05
9.066691467083791e-05
9.465980959029235e-05
9.881866589420705e-05
0.0001031499250560866
0.000107660258366165
0.000112356574277648
0.0001172460259533912
0.0001223360190171654
0.0001276342195136771
0.0001331485620815462
0.0001388872583434801
0.0001448588055179153
0.0001510719952563992
0.0001575359227110425
0.0001642599958363744
0.0001712539449299438
0.0001785278324160512
0.0001860920628769838
0.0001939573933361482
0.0002021349437975082
0.000210636208045715
0.0002194730647113437
0.000228657788605637
0.0002382030623291444
0.0002481219881586289
0.0002584281002166209
0.0002691353769279628
0.0002802582537676538
0.0002918116363043043
0.0003038109135434507
0.0003162719715749591
0.0003292112075286928
0.0003426455438425765
0.0003565924428471404
0.0003710699216705605
0.0003860965674681435
0.000401691552980148
0.0004178746524217525
0.0004346662577088926
0.0004520873950235857
0.0004701597417223176
0.0004889056435908944
0.0005083481324491115
0.0005285109441084412
0.0005494185366858268
0.000571096109276544
0.0005935696209889388
0.0006168658103437206
0.0006410122150403354
0.0006660371920927441
0.0006919699383368331
0.0007188405113113965
0.0007466798505145868
0.0007755197990373617
0.0008053931255754241
0.0008363335468207897
0.0008683757502339683
0.0009015554171975303
0.0009359092465514928
0.0009714749785108194
0.001008291418965006
0.001046398464159392
0.0010858371257577
0.001126649556284922
0.00116887907494925
0.001212570193841816
0.001257768644512084
0.001304521404917088
0.001352876726741705
0.001402884163087346
0.001454594596525714
0.001508060267513995
0.001563334803167608
0.001620473246385963
0.001679532085326553
0.001740569283222017
0.001803644308534567
0.001868818165441674
0.001936153424646323
0.002005714254504939
0.002077566452465303
0.002151777476806521
0.002228416478672493
0.002307554334389804
0.002389263678060521
0.002473618934419709
0.002560696351947142
0.002650574036221762
0.002743331983507415
0.002839052114557115
0.002937818308623356
0.003039716437660334
0.003144834400704448
0.003253262158418042
0.003365091767780804
0.003480417416913263
0.003599335460015008
0.003721944452400947
0.003848345185617095
0.003978640722617266
0.004112936432981539
0.004251340028156232
0.004393961596694449
0.004540913639476167
0.004692311104885239
0.004848271423920704
0.005008914545218677
0.00517436296996051
0.00534474178664215
0.00552017870567875
0.005700804093818342
0.005886751008337007
0.006078155230987481
0.006275155301672677
0.006477892551814451
0.006686511137387495
0.006901158071587002
0.007121983257098953
0.007349139517940083
0.00758278263083438
0.007823071356092521
0.008070167467958847
0.008324235784391345
0.008585444196237876
0.008853963695771955
0.009129968404550784
0.009413635600556778
0.009705145744584425
0.01000468250583185
0.0103124327866578
0.01062858674646261
0.01095333782465137
0.01128688276263749
0.01162942162484385
0.01198115781865773
0.0123422981132959
0.01271305265753493
0.01309363499626205
0.01348426208580057
0.01388515430796394
0.0142965354827916
0.01471863287991995
0.01515167722853995
0.01559590272589577
0.01605154704427233
0.01651885133642739
0.01699806023941578
0.0174894218767589
0.01799318785890789
0.01850961328195323
0.01903895672452781
0.01958148024285607
0.02013744936389786
0.02070713307653596
0.02129080382075801
0.02188873747478281
0.02250121334007886
0.02312851412422674
0.02377092592157389
0.02442873819163325
0.0251022437351742
0.02579173866795704
0.02649752239206274
0.02721989756476769
0.02795917006491584
0.02871564895673877
0.02948964645107872
0.03028147786396581
0.03109146157250162
0.03191991896800768
0.03276717440638958
0.03363355515567477
0.0345193913406797
0.03542501588476463
0.03635076444863283
0.03729697536613671
0.03826398957704634
0.03925215055674726
0.04026180424282721
0.04129329895851577
0.04234698533294445
0.04342321621818953
0.04452234660307107
0.0456447335236746
0.04679073597056475
0.04796071479266914
0.04915503259780043
0.05037405364979694
0.05161814376225958
0.05288767018886126
0.05418300151021573
0.05550450751728384
0.05685255909130765
0.05822752808026008
0.05962978717179369
0.06105970976268984
0.06251766982479715
0.06400404176745648
0.06551920029641366
0.06706352026922195
0.0686373765471347
0.07024114384350008
0.07187519656866351
0.07353990867139298
0.07523565347684101
0.0769628035210581
0.0787217303820842
0.08051280450763677
0.08233639503942618
0.08419286963412054
0.08608259428100294
0.08800593311634751
0.0899632482345578
0.09195489949610802
0.0939812443323334
0.0960426375471136
0.09813943111551067
0.1002719739794008
0.1024406118401762
0.1046456869485636
0.1068875378916318
0.1091664993770587
0.1114829020147196
0.113837072095682
0.1162293313686844
0.1186599968141737
0.1211293804159932
0.1236377889308113
0.1261855236553785
0.1287728801917109
0.1314001482102991
0.1340676112114483
0.1367755462848519
0.1395242238675072
0.142313907500096
0.1451448535819312
0.1480173111246034
0.1509315215044431
0.1538877182139227
0.1568861266121414
0.1599269636745066
0.1630104377417631
0.1661367482685031
0.1693060855712998
0.1725186305766088
0.1757745545685938
0.1790740189370083
0.1824171749253148
0.1858041633791709
0.1892351144954634
0.1927101475720372
0.1962293707582949
0.1997928808068205
0.2034007628262153
0.2070530900353031
0.2107499235188749
0.2144913119851693
0.2182772915252451
0.2221078853744347
0.2259831036760637
0.2299029432476087
0.2338673873494898
0.2378764054566724
0.2419299530332723
0.2460279713103558
0.2501703870671095
0.2543571124155843
0.2585880445892019
0.2628630657352042
0.2671820427112503
0.2715448268863484
0.2759512539463133
0.2804011437039379
0.2848942999140825
0.2894305100938634
0.2940095453481275
0.2986311602004231
0.3032950924296329
0.308001062912471
0.3127487754720291
0.3175379167325624
0.32236815598068
0.327239145033159
0.3321505181115189
0.3371018917235775
0.3420928645521291
0.347123017350952
0.352191912848284
0.3572990956579706
0.3624440921984147
0.3676264106195264
0.3728455407378076
0.3781009539797368
0.3833921033336077
0.3887184233099767
0.3940793299108419
0.3994742206077317
0.4049024743287943
0.4103634514550659
0.4158564938260075
0.4213809247544635
0.4269360490511316
0.4325211530586817
0.4381355046956119
0.4437783535099653
0.4494489307429708
0.4551464494027353
0.4608701043480518
0.4666190723824003
0.4723925123582186
0.4781895652915221
0.4840093544869037
0.4898509856729915
0.4957135471484083
0.5015961099382594
0.5074977279611794
0.513417438207
0.5193542609250037
0.5253071998228136
0.5312752422759125
0.5372573595477812
0.5432525070206544
0.5492596244368629
0.5552776361507558
0.5613054513911461
0.5673419645342579
0.5733860553871095
0.5794365894812822
0.5854924183770117
0.5915523799775292
0.5976152988535495
0.6036799865778615
0.6097452420698658
0.6158098519500188
0.6218725909039983
0.62793222205654
0.6339874973547522
0.6400371579608288
0.6460799346539616
0.6521145482413427
0.6581397099780624
0.6641541219957573
0.6701564777398287
0.6761454624150157
0.6821197534391905
0.6880780209051161
0.6940189280499951
0.6999411317325879
0.7058432829176727
0.7117240271676297
0.7175820051408937
0.7234158530970639
0.729224203408394
0.7350056850774215
0.7407589242604654
0.7464825447967353
0.7521751687427725
0.757835416911933
0.7634619094186438
0.7690532662271305
0.7746081077043216
0.7801250551766271
0.7856027314902897
0.7910397615749791
0.7964347730103444
0.801786396595176
0.8070932669188605
0.8123540229348116
0.8175673085355287
0.8227317731289587
0.8278460722158152
0.8329088679675252
0.8379188298044445
0.8428746349740038
0.8477749691284391
0.8526185269017565
0.8574040124855653
0.862130140203449
0.8667956350835077
0.871399233428707
0.8759396833847053
0.8804157455047803
0.8848261933115075
0.8891698138548351
0.8934454082662125
0.8976517923083956
0.9017877969205951
0.9058522687586225
0.9098440707296613
0.9137620825213411
0.917605201124757
0.9213723413511057
0.9250624363415766
0.9286744380701972
0.9322073178392694
0.9356600667670898
0.9390316962676151
0.9423212385217749
0.9455277469400947
0.9486502966163336
0.9516879847718301
0.954639931190254
0.9575052786424747
0.9602831933012564
0.9629728651455052
0.965573508353787
0.9680843616868503
0.9705046888588934
0.9728337788973295
0.9750709464907906
0.977215532325144
0.9792669034072833
0.9812244533764711
0.9830876028030288
0.984855799474152
0.9865285186666685
0.988105263406542
0.9895855647149431
0.9909689818407216
0.9922551024791095
0.9934435429765139
0.99453394852125
0.995525993320083
0.9964193807604558
0.9972138435582928
0.9979091438912704
0.9985050735174672
0.9990014538793078
0.9993981361927271
0.9996950015214955
0.9998919608366508
0.9999889550609958
0.9999859550986305
0.9998829618494988
0.9996800062089378
0.9993771490522328
0.998974481204186
0.9984721233937213
0.9978702261935586
0.9971689699449965
0.9963685646678585
0.9954692499556652
0.9944712948561049
0.9933749977368868
0.9921806861370714
0.9908887166039788
0.9894994745157917
0.9880133738899739
0.9864308571776441
0.984752395044035
0.9829784861352051
0.9811096568311556
0.9791464609855252
0.9770894796520472
0.9749393207979485
0.9726966190045049
0.9703620351549358
0.9679362561098781
0.9654199943706447
0.9628139877305045
0.9601189989142221
0.9573358152061121
0.9544652480668409
0.9515081327392617
0.9484653278435355
0.9453377149618136
0.9421261982127697
0.9388317038162627
0.9354551796484262
0.9319975947874852
0.928459939050594
0.9248432225220273
0.9211484750730121
0.9173767458735372
0.9135291028964636
0.9096066324142498
0.905610438488643
0.9015416424536498
0.8974013823921497
0.8931908126064624
0.8889111030832467
0.8845634389530491
0.8801490199448577
0.8756690598360319
0.8711247858979334
0.8665174383376134
0.8618482697359372
0.8571185444824686
0.8523295382074897
0.8474825372114981
0.8425788378925532
0.8376197461718093
0.8326065769175995
0.827540653368411
0.8224233065551327
0.8172558747228859
0.8120397027528162
0.8067761415841737
0.8014665476370463
0.7961122822360668
0.7907147110354346
0.7852752034456034
0.7797951320619474
0.7742758720957506
0.7687188008078257
0.7631252969450978
0.757496740180464
0.75183451055624
0.7461399879314914
0.7404145514335729
0.7346595789141505
0.7288764464100074
0.7230665276089159
0.7172311933208603
0.7113718109548874
0.7054897440018275
0.6995863515231835
0.693662987646427
0.6877210010669296
0.6817617345568168
0.6757865244809294
0.6697967003201653
0.6637935842023858
0.6577784904411199
0.651752725082285
0.6457175854590739
0.6396743597552766
0.633624326577133
0.6275687545339718
0.6215089018277482
0.6154460158516749
0.6093813327980782
0.6033160772756363
0.5972514619361347
0.5911886871108633
0.5851289404567762
0.5790733966125409
0.573023216864558
0.5669795488230733
0.5609435261084506
0.5549162680477022
0.5488988793813362
0.5428924499805996
0.5368980545751593
0.5309167524912907
0.524949587400584
0.5189975870792417
0.5130617631779532
0.5071431110024005
0.5012426093043685
0.495361220083501
0.489499888399679
0.4836595421959909
0.4778410921323245
0.472045431429503
0.4662734357239621
0.4605259629329258
0.4548038531300203
0.4491079284312852
0.4434389928915174
0.437797832410885
0.4321852146517275
0.4266018889654718
0.4210485863295814
0.4155260192944484
0.4100348819401086
0.4045758498427185
0.3991495800506468
0.3937567110700947
0.3883978628601145
0.3830736368368947
0.3777846158872166
0.3725313643909033
0.3673144282521669
0.3621343349396838
0.3569915935352698
0.3518866947909925
0.3468201111945802
0.3417922970429612
0.336803688523782
0.3318547038047264
0.326945743130491
0.3220771889272271
0.3172494059142864
0.3124627412230989
0.3077175245229999
0.3030140681538283
0.2983526672651141
0.2937335999616816
0.2891571274554672
0.284623494223381
0.2801329281710171
0.2756856408020192
0.2712818273929303
0.2669216671733087
0.2626053235109491
0.2583329441019929
0.2541046611657471
0.2499205916440189
0.2457808374047782
0.2416854854499433
0.2376346081271066
0.2336282633450146
0.2296664947926017
0.2257493321613867
0.2218767913710589
0.2180488747980412
0.2142655715068705
0.2105268574841812
0.2068326958751375
0.2031830372221024
0.1995778197053834
0.1960169693858683
0.1925004004493698
0.1890280154525107
0.1855997055699685
0.1822153508429136
0.1788748204284651
0.1755779728500161
0.1723246562482295
0.169114708632578
0.1659479581332532
0.1628242232532794
0.1597433131206934
0.1567050277406359
0.1537091582471954
0.150755487154869
0.1478437886095065
0.1449738286385737
0.1421453654006256
0.1393581494338383
0.1366119239034805
0.1339064248481982
0.1312413814249737
0.1286165161526675
0.1260315451540013
0.1234861783958781
0.120980119927941
0.1185130681192438
0.1160847158929447
0.1136947509589229
0.1113428560442196
0.1090287091212093
0.1067519836334165
0.1045123487188885
0.102309469431056
0.1001430069569706
0.09801261883288727
0.09591795915708726
0.09385867879988445
0.09183442561075598
0.08984484462252558
0.08788957825254881
0.08596826650084093
0.08408054714510217
0.08222605593258446
0.08040442676875931
0.07861529190274574
0.07685828210945872
0.07513302686844117
0.07343915453934476
0.07177629253404456
0.07014406748533944
0.06854210541223181
0.06697003188175786
0.0654274721673566
0.06391405140375679
0.06242939473837099
0.06097312747919528
0.05954487523919454
0.05814426407717999
0.05677092063517287
0.05542447227225299
0.05410454719490573
0.05281077458385494
0.05154278471741008
0.05030020909131978
0.04908268053516043
0.04788983332525681
0.04672130329417025
0.0455767279367541
0.04445574651281146
0.04335800014636885
0.04228313192159282
0.04123078697537774
0.04020061258662529
0.03919225826225171
0.03820537581994866
0.03723961946773336
0.03629464588031728
0.03537011427233381
0.03446568646845503
0.03358102697043725
0.03271580302113662
0.03186968466553079
0.0310423448087883
0.03023345927142718
0.02944270684160774
0.02866976932459815
0.02791433158946357
0.02717608161301664
0.02645471052108087
0.02574991262711253
0.02506138546822348
0.024388829838659
0.02373194982077382
0.0230904528135573
0.0224640495587555
0.02185245416463983
0.02125538412747386
0.02067256035072201
0.02010370716205873
0.01954855232821993
0.01900682706775327
0.01847826606171479
0.01796260746236068
0.0174595928998903
0.01696896748728212
0.01649047982328209
0.01602388199358738
0.01556892957027868
0.01512538160955062
0.01469300064778985
0.01427155269604784
0.01386080723296107
0.01346053719616416
0.01307051897224542
0.01269053238529391
0.01232036068408155
0.01195979052793174
0.01160861197132099
0.0112666184472536
0.010933606749463
0.01060937701348038
0.0102937326966153
0.009986480556893228
0.009687430630993083
0.009396396211228168
0.009113193821611439
0.008837643193046767
0.008569567237689002
0.008308792022510792
0.008055146742116659
0.007808463690843541
0.007568578234184989
0.007335328779578376
0.007108556746589614
0.006888106536532925
0.00667382550156109
0.006465563913259943
0.006263174930781532
0.006066514568549514
0.005875441663568136
0.005689817842367549
0.005509507487616339
0.005334377704429983
0.005164298286406958
0.004999141681419755
0.004838782957188933
0.004683099766667895
0.004531972313264432
0.004385283315924973
0.004242917974106832
0.004104763932662251
0.003970711246657902
0.003840652346153451
0.00371448200095994
0.003592097285400978
0.003473397543095759
0.003358284351785992
0.003246661488223866
0.003138434893141522
0.003033512636319128
0.002931804881768741
0.002833223853051489
0.002737683798743144
0.002645100958063837
0.00255539352668697
0.00246848162274098
0.00238428725301769
0.002302734279400333
0.002223748385523045
0.002147257043674252
0.002073189481954823
0.002001476651701291
0.001932051195184889
0.001864847413595401
0.001799801235319127
0.001736850184519291
0.001675933350026983
0.001616991354550164
0.001559966324207758
0.00150480185839522
0.00145144299998789
0.001399836205887654
0.001349929317918355
0.00130167153407422
0.001255013380126321
0.001209906681590597
0.001166304536061252
0.001124161285912554
0.001083432491372028
0.001044074903967588
0.00100604644035031
0.0009693061564952743
0.0009338142222814508
0.0008995318964520534
0.0008664215019560328
0.0008344464016714988
0.0008035709745110931
0.0007737605919095333
0.0007449815946929787
0.0007172012703296574
0.0006903878305611241
0.00066451038941311
0.0006395389415846734
0.0006154443412143553
0.0005921982810216575
0.0005697732718219881
0.0005481426224131333
0.0005272804198309524
0.0005071615099720136
0.0004877614785806938
0.0004690566325979104
0.0004510239818687814
0.0004336412212061931
0.0004168867128072643
0.000400739469019319
0.0003851791354522176
0.0003701859744334705
0.0003557408488026797
0.0003418252060416237
0.0003284210627361945
0.000315510989366524
0.0003030780954212925
0.0002911060148322591
0.0002795788917250738
0.0002684813664822236
0.0002577985621139883
0.0002475160709332416
0.0002376199415298397
0.0002280966660403919
0.0002189331677090516
0.0002101167887350533
0.0002016352784026033
0.0001934767814888072
0.0001856298269452381
0.0001780833168487191
0.0001708265156169355
0.0001638490394845342
0.0001571408462352147
0.0001506922251854685
0.000144493787415559
0.0001385364562433602
0.0001328114579366999
0.0001273103126598319
0.0001220248256497148
0.0001169470786177811
0.0001120694213729154
0.000107384463661375
0.0001028850672194098
9.856433803439346e-05
9.441561881028169e-05
9.043248163327263e-05
8.660872083356034e-05
8.29383460391243e-05
7.941557541753653e-05
7.603482910178679e-05
7.279072279621458e-05
6.967806155863119e-05
6.669183375479528e-05
6.382720518142283e-05
6.107951335399269e-05
5.844426195562114e-05
5.591711544336612e-05
5.34938938083232e-05
5.117056748598312e-05
4.894325241330958e-05
4.680820522911231e-05
4.476181861428439e-05
4.280061676855946e-05
4.092125102048774e-05
3.912049556738393e-05
3.73952433420477e-05
3.574250200312053e-05
3.415939004598588e-05
3.264313303118034e-05
3.11910599273369e-05
2.980059956572852e-05
2.84692772035435e-05
2.719471119306363e-05
2.597460975398593e-05
2.480676784616926e-05
2.368906414014575e-05
2.261945808278164e-05
2.159598705553979e-05
2.061676362282877e-05
1.967997286799344e-05
1.878386981453183e-05
1.792677693019773e-05
1.710708171167998e-05
1.632323434760439e-05
1.557374545765693e-05
1.485718390567594e-05
1.417217468459681e-05
1.351739687119919e-05
1.28915816486391e-05
1.229351039480005e-05
1.172201283454268e-05
1.117596525397747e-05
1.065428877493119e-05
1.015594768781617e-05
9.679947841162228e-06
9.225335086108372e-06
8.791193774194918e-06
8.376645306837845e-06
7.980846734909581e-06
7.602989406884239e-06
7.242297664055265e-06
6.898027581360661e-06
6.569465752395802e-06
6.25592811722922e-06
5.956758831672623e-06
5.671329176693812e-06
5.399036506693598e-06
5.139303235405713e-06
4.891575858209615e-06
4.655324009680882e-06
4.430039555235651e-06
4.215235715757301e-06
4.010446224125215e-06
3.815224512595246e-06
3.62914293001189e-06
3.451791987860728e-06
3.282779634198532e-06
3.121730554527337e-06
2.968285498702857e-06
2.822100632998247e-06
2.682846916467687e-06
2.550209500780075e-06
2.423887152718262e-06
2.303591698563645e-06
2.189047489608265e-06
2.07999088806214e-06
1.976169772642673e-06
1.87734306315792e-06
1.783280263414982e-06
1.693761021806423e-06
1.608574708947438e-06
1.527520011756865e-06
1.450404543393478e-06
1.377044468478864e-06
1.307264143055003e-06
1.240895768744002e-06
1.177779060593394e-06
1.117760928107761e-06
1.060695168983899e-06
1.006442175082325e-06
9.548686501834368e-07
9.058473390916384e-07
8.592567676656549e-07
8.149809933666521e-07
7.729093659303292e-07
7.329362977820225e-07
6.949610438270656e-07
6.588874902609129e-07
6.246239520563029e-07
5.920829787958472e-07
5.611811685305695e-07
5.318389893557287e-07
5.039806084060891e-07
4.77533727983366e-07
4.524294285386181e-07
4.286020182422738e-07
4.059888888839844e-07
3.845303778537336e-07
3.641696359644179e-07
3.448525008851093e-07
3.26527375962201e-07
3.091451142140289e-07
2.926589072921659e-07
2.77024179210498e-07
2.621984846501013e-07
2.481414116555268e-07
2.348144885444292e-07
2.221810948597148e-07
2.102063761991553e-07
1.988571627642074e-07
1.881018914752869e-07
1.779105315068747e-07
1.682545131012068e-07
1.591066595248563e-07
1.504411220374959e-07
1.422333177474859e-07
1.344598702334612e-07
1.270985528159929e-07
1.201282343678376e-07
1.135288275556285e-07
1.072812394101023e-07
1.013673241260246e-07
9.576983799683801e-08
9.047239639284415e-08
8.545943269537563e-08
8.071615910291781e-08
7.622852922846985e-08
7.198320241072963e-08
6.796750966477993e-08
6.41694212010175e-08
6.057751544387072e-08
5.718094948477111e-08
5.396943090639762e-08
5.093319091792801e-08
4.806295874339905e-08
4.534993720776521e-08
4.278577946749986e-08
4.036256683478692e-08
3.807278764654173e-08
3.590931713146248e-08
3.386539823034427e-08
3.193462332675303e-08
3.011091684698199e-08
2.838851868993981e-08
2.676196844932311e-08
2.522609039201868e-08
2.377597915823061e-08
2.240698615031335e-08
2.111470657871887e-08
1.989496713483065e-08
1.874381426176809e-08
1.765750299551531e-08
1.663248634992108e-08
1.56654052202908e-08
1.475307878139218e-08
1.389249535677274e-08
1.308080373729203e-08
1.231530492777986e-08
1.159344430163842e-08
1.091280414413291e-08
1.027109656595927e-08
9.666156769519686e-09
9.095936651112268e-09
8.558498723010498e-09