/*--------------------------------*- C++ -*----------------------------------*\
| =========                 |                                                 |
| \\      /  F ield         | OpenFOAM: The Open Source CFD Toolbox           |
|  \\    /   O peration     | Version:  2412                                  |
|   \\  /    A nd           | Website:  www.openfoam.com                      |
|    \\/     M anipulation  |                                                 |
\*---------------------------------------------------------------------------*/
FoamFile
{
    version     2.0;
    format      ascii;
    arch        "LSB;label=32;scalar=64";
    class       volVectorField;
    location    "0.8";
    object      U;
}
// * * * * * * * * * * * * * * * * * * * * * * * * * * * * * * * * * * * * * //

dimensions      [0 1 -1 0 0 0 0];

internalField   nonuniform List<vector> 
800
(
(0.00111869 0 0)
(0.00335608 0 0)
(0.00559347 0 0)
(0.00783085 0 0)
(0.0100682 0 0)
(0.0123056 0 0)
(0.0145429 0 0)
(0.0167802 0 0)
(0.0190175 0 0)
(0.0212548 0 0)
(0.023492 0 0)
(0.0257292 0 0)
(0.0279664 0 0)
(0.0302035 0 0)
(0.0324406 0 0)
(0.0346776 0 0)
(0.0369146 0 0)
(0.0391515 0 0)
(0.0413884 0 0)
(0.0436252 0 0)
(0.0458619 0 0)
(0.0480986 0 0)
(0.0503352 0 0)
(0.0525718 0 0)
(0.0548082 0 0)
(0.0570446 0 0)
(0.0592809 0 0)
(0.0615171 0 0)
(0.0637532 0 0)
(0.0659892 0 0)
(0.0682252 0 0)
(0.070461 0 0)
(0.0726967 0 0)
(0.0749323 0 0)
(0.0771679 0 0)
(0.0794032 0 0)
(0.0816385 0 0)
(0.0838737 0 0)
(0.0861087 0 0)
(0.0883436 0 0)
(0.0905784 0 0)
(0.0928131 0 0)
(0.0950476 0 0)
(0.0972819 0 0)
(0.0995162 0 0)
(0.10175 0 0)
(0.103984 0 0)
(0.106218 0 0)
(0.108452 0 0)
(0.110685 0 0)
(0.112918 0 0)
(0.115151 0 0)
(0.117384 0 0)
(0.119617 0 0)
(0.12185 0 0)
(0.124082 0 0)
(0.126315 0 0)
(0.128547 0 0)
(0.130778 0 0)
(0.13301 0 0)
(0.135242 0 0)
(0.137473 0 0)
(0.139704 0 0)
(0.141935 0 0)
(0.144165 0 0)
(0.146396 0 0)
(0.148626 0 0)
(0.150856 0 0)
(0.153086 0 0)
(0.155315 0 0)
(0.157545 0 0)
(0.159774 0 0)
(0.162003 0 0)
(0.164231 0 0)
(0.16646 0 0)
(0.168688 0 0)
(0.170916 0 0)
(0.173143 0 0)
(0.17537 0 0)
(0.177598 0 0)
(0.179824 0 0)
(0.182051 0 0)
(0.184277 0 0)
(0.186503 0 0)
(0.188729 0 0)
(0.190954 0 0)
(0.193179 0 0)
(0.195404 0 0)
(0.197629 0 0)
(0.199853 0 0)
(0.202077 0 0)
(0.2043 0 0)
(0.206524 0 0)
(0.208747 0 0)
(0.210969 0 0)
(0.213192 0 0)
(0.215414 0 0)
(0.217635 0 0)
(0.219857 0 0)
(0.222078 0 0)
(0.224299 0 0)
(0.226519 0 0)
(0.228739 0 0)
(0.230958 0 0)
(0.233178 0 0)
(0.235397 0 0)
(0.237615 0 0)
(0.239833 0 0)
(0.242051 0 0)
(0.244269 0 0)
(0.246486 0 0)
(0.248702 0 0)
(0.250919 0 0)
(0.253135 0 0)
(0.25535 0 0)
(0.257565 0 0)
(0.25978 0 0)
(0.261994 0 0)
(0.264208 0 0)
(0.266422 0 0)
(0.268635 0 0)
(0.270847 0 0)
(0.273059 0 0)
(0.275271 0 0)
(0.277482 0 0)
(0.279693 0 0)
(0.281904 0 0)
(0.284114 0 0)
(0.286323 0 0)
(0.288532 0 0)
(0.290741 0 0)
(0.292949 0 0)
(0.295157 0 0)
(0.297364 0 0)
(0.299571 0 0)
(0.301777 0 0)
(0.303983 0 0)
(0.306188 0 0)
(0.308393 0 0)
(0.310597 0 0)
(0.312801 0 0)
(0.315004 0 0)
(0.317207 0 0)
(0.319409 0 0)
(0.321611 0 0)
(0.323812 0 0)
(0.326013 0 0)
(0.328213 0 0)
(0.330413 0 0)
(0.332612 0 0)
(0.33481 0 0)
(0.337008 0 0)
(0.339206 0 0)
(0.341403 0 0)
(0.343599 0 0)
(0.345795 0 0)
(0.34799 0 0)
(0.350184 0 0)
(0.352378 0 0)
(0.354572 0 0)
(0.356764 0 0)
(0.358957 0 0)
(0.361148 0 0)
(0.363339 0 0)
(0.36553 0 0)
(0.367719 0 0)
(0.369908 0 0)
(0.372097 0 0)
(0.374285 0 0)
(0.376472 0 0)
(0.378659 0 0)
(0.380844 0 0)
(0.38303 0 0)
(0.385214 0 0)
(0.387398 0 0)
(0.389582 0 0)
(0.391764 0 0)
(0.393946 0 0)
(0.396127 0 0)
(0.398308 0 0)
(0.400488 0 0)
(0.402667 0 0)
(0.404845 0 0)
(0.407023 0 0)
(0.4092 0 0)
(0.411376 0 0)
(0.413552 0 0)
(0.415727 0 0)
(0.417901 0 0)
(0.420074 0 0)
(0.422247 0 0)
(0.424419 0 0)
(0.42659 0 0)
(0.42876 0 0)
(0.43093 0 0)
(0.433099 0 0)
(0.435267 0 0)
(0.437434 0 0)
(0.4396 0 0)
(0.441766 0 0)
(0.443931 0 0)
(0.446095 0 0)
(0.448258 0 0)
(0.45042 0 0)
(0.452582 0 0)
(0.454742 0 0)
(0.456902 0 0)
(0.459061 0 0)
(0.461219 0 0)
(0.463377 0 0)
(0.465533 0 0)
(0.467689 0 0)
(0.469843 0 0)
(0.471997 0 0)
(0.47415 0 0)
(0.476302 0 0)
(0.478453 0 0)
(0.480603 0 0)
(0.482752 0 0)
(0.484901 0 0)
(0.487048 0 0)
(0.489194 0 0)
(0.49134 0 0)
(0.493484 0 0)
(0.495628 0 0)
(0.497771 0 0)
(0.499912 0 0)
(0.502053 0 0)
(0.504193 0 0)
(0.506331 0 0)
(0.508469 0 0)
(0.510606 0 0)
(0.512741 0 0)
(0.514876 0 0)
(0.517009 0 0)
(0.519142 0 0)
(0.521273 0 0)
(0.523404 0 0)
(0.525533 0 0)
(0.527662 0 0)
(0.529789 0 0)
(0.531915 0 0)
(0.53404 0 0)
(0.536164 0 0)
(0.538287 0 0)
(0.540409 0 0)
(0.542529 0 0)
(0.544649 0 0)
(0.546767 0 0)
(0.548884 0 0)
(0.551 0 0)
(0.553115 0 0)
(0.555229 0 0)
(0.557341 0 0)
(0.559453 0 0)
(0.561563 0 0)
(0.563672 0 0)
(0.565779 0 0)
(0.567886 0 0)
(0.569991 0 0)
(0.572095 0 0)
(0.574198 0 0)
(0.576299 0 0)
(0.578399 0 0)
(0.580498 0 0)
(0.582596 0 0)
(0.584692 0 0)
(0.586787 0 0)
(0.588881 0 0)
(0.590973 0 0)
(0.593064 0 0)
(0.595154 0 0)
(0.597242 0 0)
(0.599329 0 0)
(0.601414 0 0)
(0.603499 0 0)
(0.605581 0 0)
(0.607663 0 0)
(0.609743 0 0)
(0.611821 0 0)
(0.613898 0 0)
(0.615974 0 0)
(0.618048 0 0)
(0.620121 0 0)
(0.622192 0 0)
(0.624262 0 0)
(0.62633 0 0)
(0.628396 0 0)
(0.630461 0 0)
(0.632525 0 0)
(0.634587 0 0)
(0.636648 0 0)
(0.638706 0 0)
(0.640764 0 0)
(0.642819 0 0)
(0.644873 0 0)
(0.646926 0 0)
(0.648977 0 0)
(0.651026 0 0)
(0.653073 0 0)
(0.655119 0 0)
(0.657163 0 0)
(0.659206 0 0)
(0.661246 0 0)
(0.663285 0 0)
(0.665323 0 0)
(0.667358 0 0)
(0.669392 0 0)
(0.671424 0 0)
(0.673454 0 0)
(0.675482 0 0)
(0.677509 0 0)
(0.679533 0 0)
(0.681556 0 0)
(0.683577 0 0)
(0.685596 0 0)
(0.687613 0 0)
(0.689628 0 0)
(0.691641 0 0)
(0.693653 0 0)
(0.695662 0 0)
(0.697669 0 0)
(0.699675 0 0)
(0.701678 0 0)
(0.703679 0 0)
(0.705678 0 0)
(0.707676 0 0)
(0.709671 0 0)
(0.711664 0 0)
(0.713655 0 0)
(0.715643 0 0)
(0.71763 0 0)
(0.719614 0 0)
(0.721596 0 0)
(0.723576 0 0)
(0.725554 0 0)
(0.72753 0 0)
(0.729503 0 0)
(0.731474 0 0)
(0.733443 0 0)
(0.735409 0 0)
(0.737373 0 0)
(0.739335 0 0)
(0.741294 0 0)
(0.743251 0 0)
(0.745205 0 0)
(0.747157 0 0)
(0.749107 0 0)
(0.751054 0 0)
(0.752998 0 0)
(0.75494 0 0)
(0.75688 0 0)
(0.758816 0 0)
(0.760751 0 0)
(0.762682 0 0)
(0.764611 0 0)
(0.766537 0 0)
(0.768461 0 0)
(0.770382 0 0)
(0.7723 0 0)
(0.774215 0 0)
(0.776127 0 0)
(0.778037 0 0)
(0.779944 0 0)
(0.781847 0 0)
(0.783748 0 0)
(0.785646 0 0)
(0.787541 0 0)
(0.789433 0 0)
(0.791322 0 0)
(0.793208 0 0)
(0.795091 0 0)
(0.796971 0 0)
(0.798847 0 0)
(0.80072 0 0)
(0.80259 0 0)
(0.804457 0 0)
(0.806321 0 0)
(0.808181 0 0)
(0.810038 0 0)
(0.811892 0 0)
(0.813742 0 0)
(0.815588 0 0)
(0.817431 0 0)
(0.819271 0 0)
(0.821107 0 0)
(0.82294 0 0)
(0.824768 0 0)
(0.826593 0 0)
(0.828415 0 0)
(0.830232 0 0)
(0.832046 0 0)
(0.833856 0 0)
(0.835662 0 0)
(0.837464 0 0)
(0.839263 0 0)
(0.841048 0 0)
(0.843175 0 0)
(0.830471 0 0)
(0.449271 0 0)
(-0.44801 0 0)
(-0.830331 0 0)
(-0.843176 0 0)
(-0.841045 0 0)
(-0.83926 0 0)
(-0.837462 0 0)
(-0.83566 0 0)
(-0.833854 0 0)
(-0.832044 0 0)
(-0.83023 0 0)
(-0.828412 0 0)
(-0.826591 0 0)
(-0.824766 0 0)
(-0.822937 0 0)
(-0.821105 0 0)
(-0.819269 0 0)
(-0.817429 0 0)
(-0.815586 0 0)
(-0.813739 0 0)
(-0.811889 0 0)
(-0.810036 0 0)
(-0.808179 0 0)
(-0.806318 0 0)
(-0.804455 0 0)
(-0.802588 0 0)
(-0.800718 0 0)
(-0.798845 0 0)
(-0.796968 0 0)
(-0.795088 0 0)
(-0.793206 0 0)
(-0.79132 0 0)
(-0.789431 0 0)
(-0.787539 0 0)
(-0.785644 0 0)
(-0.783746 0 0)
(-0.781845 0 0)
(-0.779941 0 0)
(-0.778034 0 0)
(-0.776125 0 0)
(-0.774212 0 0)
(-0.772297 0 0)
(-0.770379 0 0)
(-0.768458 0 0)
(-0.766535 0 0)
(-0.764609 0 0)
(-0.76268 0 0)
(-0.760748 0 0)
(-0.758814 0 0)
(-0.756877 0 0)
(-0.754938 0 0)
(-0.752996 0 0)
(-0.751051 0 0)
(-0.749104 0 0)
(-0.747155 0 0)
(-0.745203 0 0)
(-0.743249 0 0)
(-0.741292 0 0)
(-0.739332 0 0)
(-0.737371 0 0)
(-0.735407 0 0)
(-0.73344 0 0)
(-0.731472 0 0)
(-0.729501 0 0)
(-0.727527 0 0)
(-0.725552 0 0)
(-0.723574 0 0)
(-0.721594 0 0)
(-0.719612 0 0)
(-0.717628 0 0)
(-0.715641 0 0)
(-0.713652 0 0)
(-0.711661 0 0)
(-0.709668 0 0)
(-0.707673 0 0)
(-0.705676 0 0)
(-0.703677 0 0)
(-0.701676 0 0)
(-0.699672 0 0)
(-0.697667 0 0)
(-0.69566 0 0)
(-0.69365 0 0)
(-0.691639 0 0)
(-0.689626 0 0)
(-0.687611 0 0)
(-0.685594 0 0)
(-0.683575 0 0)
(-0.681554 0 0)
(-0.679531 0 0)
(-0.677506 0 0)
(-0.67548 0 0)
(-0.673452 0 0)
(-0.671422 0 0)
(-0.66939 0 0)
(-0.667356 0 0)
(-0.66532 0 0)
(-0.663283 0 0)
(-0.661244 0 0)
(-0.659204 0 0)
(-0.657161 0 0)
(-0.655117 0 0)
(-0.653071 0 0)
(-0.651024 0 0)
(-0.648975 0 0)
(-0.646924 0 0)
(-0.644871 0 0)
(-0.642817 0 0)
(-0.640762 0 0)
(-0.638704 0 0)
(-0.636646 0 0)
(-0.634585 0 0)
(-0.632523 0 0)
(-0.63046 0 0)
(-0.628394 0 0)
(-0.626328 0 0)
(-0.62426 0 0)
(-0.62219 0 0)
(-0.620119 0 0)
(-0.618046 0 0)
(-0.615972 0 0)
(-0.613896 0 0)
(-0.611819 0 0)
(-0.609741 0 0)
(-0.607661 0 0)
(-0.60558 0 0)
(-0.603497 0 0)
(-0.601413 0 0)
(-0.599327 0 0)
(-0.59724 0 0)
(-0.595152 0 0)
(-0.593062 0 0)
(-0.590971 0 0)
(-0.588879 0 0)
(-0.586785 0 0)
(-0.58469 0 0)
(-0.582594 0 0)
(-0.580496 0 0)
(-0.578397 0 0)
(-0.576297 0 0)
(-0.574196 0 0)
(-0.572093 0 0)
(-0.569989 0 0)
(-0.567884 0 0)
(-0.565778 0 0)
(-0.56367 0 0)
(-0.561561 0 0)
(-0.559451 0 0)
(-0.55734 0 0)
(-0.555227 0 0)
(-0.553113 0 0)
(-0.550999 0 0)
(-0.548883 0 0)
(-0.546765 0 0)
(-0.544647 0 0)
(-0.542528 0 0)
(-0.540407 0 0)
(-0.538285 0 0)
(-0.536162 0 0)
(-0.534038 0 0)
(-0.531913 0 0)
(-0.529787 0 0)
(-0.52766 0 0)
(-0.525532 0 0)
(-0.523402 0 0)
(-0.521272 0 0)
(-0.51914 0 0)
(-0.517008 0 0)
(-0.514874 0 0)
(-0.51274 0 0)
(-0.510604 0 0)
(-0.508467 0 0)
(-0.50633 0 0)
(-0.504191 0 0)
(-0.502052 0 0)
(-0.499911 0 0)
(-0.497769 0 0)
(-0.495627 0 0)
(-0.493483 0 0)
(-0.491339 0 0)
(-0.489193 0 0)
(-0.487047 0 0)
(-0.484899 0 0)
(-0.482751 0 0)
(-0.480602 0 0)
(-0.478452 0 0)
(-0.476301 0 0)
(-0.474149 0 0)
(-0.471996 0 0)
(-0.469842 0 0)
(-0.467687 0 0)
(-0.465532 0 0)
(-0.463375 0 0)
(-0.461218 0 0)
(-0.45906 0 0)
(-0.456901 0 0)
(-0.454741 0 0)
(-0.452581 0 0)
(-0.450419 0 0)
(-0.448257 0 0)
(-0.446093 0 0)
(-0.443929 0 0)
(-0.441765 0 0)
(-0.439599 0 0)
(-0.437433 0 0)
(-0.435265 0 0)
(-0.433097 0 0)
(-0.430929 0 0)
(-0.428759 0 0)
(-0.426589 0 0)
(-0.424418 0 0)
(-0.422246 0 0)
(-0.420073 0 0)
(-0.4179 0 0)
(-0.415726 0 0)
(-0.413551 0 0)
(-0.411375 0 0)
(-0.409199 0 0)
(-0.407022 0 0)
(-0.404844 0 0)
(-0.402666 0 0)
(-0.400487 0 0)
(-0.398307 0 0)
(-0.396126 0 0)
(-0.393945 0 0)
(-0.391763 0 0)
(-0.389581 0 0)
(-0.387397 0 0)
(-0.385213 0 0)
(-0.383029 0 0)
(-0.380844 0 0)
(-0.378658 0 0)
(-0.376471 0 0)
(-0.374284 0 0)
(-0.372096 0 0)
(-0.369908 0 0)
(-0.367718 0 0)
(-0.365529 0 0)
(-0.363338 0 0)
(-0.361147 0 0)
(-0.358956 0 0)
(-0.356764 0 0)
(-0.354571 0 0)
(-0.352378 0 0)
(-0.350184 0 0)
(-0.347989 0 0)
(-0.345794 0 0)
(-0.343598 0 0)
(-0.341402 0 0)
(-0.339205 0 0)
(-0.337008 0 0)
(-0.33481 0 0)
(-0.332611 0 0)
(-0.330412 0 0)
(-0.328213 0 0)
(-0.326012 0 0)
(-0.323812 0 0)
(-0.321611 0 0)
(-0.319409 0 0)
(-0.317207 0 0)
(-0.315004 0 0)
(-0.312801 0 0)
(-0.310597 0 0)
(-0.308392 0 0)
(-0.306188 0 0)
(-0.303982 0 0)
(-0.301777 0 0)
(-0.29957 0 0)
(-0.297364 0 0)
(-0.295156 0 0)
(-0.292949 0 0)
(-0.290741 0 0)
(-0.288532 0 0)
(-0.286323 0 0)
(-0.284113 0 0)
(-0.281903 0 0)
(-0.279693 0 0)
(-0.277482 0 0)
(-0.275271 0 0)
(-0.273059 0 0)
(-0.270847 0 0)
(-0.268634 0 0)
(-0.266421 0 0)
(-0.264208 0 0)
(-0.261994 0 0)
(-0.259779 0 0)
(-0.257565 0 0)
(-0.25535 0 0)
(-0.253134 0 0)
(-0.250918 0 0)
(-0.248702 0 0)
(-0.246485 0 0)
(-0.244268 0 0)
(-0.242051 0 0)
(-0.239833 0 0)
(-0.237615 0 0)
(-0.235396 0 0)
(-0.233177 0 0)
(-0.230958 0 0)
(-0.228739 0 0)
(-0.226519 0 0)
(-0.224298 0 0)
(-0.222078 0 0)
(-0.219857 0 0)
(-0.217635 0 0)
(-0.215413 0 0)
(-0.213191 0 0)
(-0.210969 0 0)
(-0.208746 0 0)
(-0.206523 0 0)
(-0.2043 0 0)
(-0.202077 0 0)
(-0.199853 0 0)
(-0.197628 0 0)
(-0.195404 0 0)
(-0.193179 0 0)
(-0.190954 0 0)
(-0.188729 0 0)
(-0.186503 0 0)
(-0.184277 0 0)
(-0.182051 0 0)
(-0.179824 0 0)
(-0.177597 0 0)
(-0.17537 0 0)
(-0.173143 0 0)
(-0.170915 0 0)
(-0.168688 0 0)
(-0.166459 0 0)
(-0.164231 0 0)
(-0.162002 0 0)
(-0.159774 0 0)
(-0.157545 0 0)
(-0.155315 0 0)
(-0.153086 0 0)
(-0.150856 0 0)
(-0.148626 0 0)
(-0.146396 0 0)
(-0.144165 0 0)
(-0.141935 0 0)
(-0.139704 0 0)
(-0.137473 0 0)
(-0.135241 0 0)
(-0.13301 0 0)
(-0.130778 0 0)
(-0.128546 0 0)
(-0.126314 0 0)
(-0.124082 0 0)
(-0.12185 0 0)
(-0.119617 0 0)
(-0.117384 0 0)
(-0.115151 0 0)
(-0.112918 0 0)
(-0.110685 0 0)
(-0.108451 0 0)
(-0.106218 0 0)
(-0.103984 0 0)
(-0.10175 0 0)
(-0.0995161 0 0)
(-0.0972819 0 0)
(-0.0950475 0 0)
(-0.092813 0 0)
(-0.0905784 0 0)
(-0.0883436 0 0)
(-0.0861087 0 0)
(-0.0838736 0 0)
(-0.0816385 0 0)
(-0.0794032 0 0)
(-0.0771678 0 0)
(-0.0749323 0 0)
(-0.0726967 0 0)
(-0.070461 0 0)
(-0.0682251 0 0)
(-0.0659892 0 0)
(-0.0637532 0 0)
(-0.0615171 0 0)
(-0.0592809 0 0)
(-0.0570446 0 0)
(-0.0548082 0 0)
(-0.0525718 0 0)
(-0.0503352 0 0)
(-0.0480986 0 0)
(-0.0458619 0 0)
(-0.0436252 0 0)
(-0.0413884 0 0)
(-0.0391515 0 0)
(-0.0369146 0 0)
(-0.0346776 0 0)
(-0.0324406 0 0)
(-0.0302035 0 0)
(-0.0279664 0 0)
(-0.0257292 0 0)
(-0.023492 0 0)
(-0.0212548 0 0)
(-0.0190175 0 0)
(-0.0167802 0 0)
(-0.0145429 0 0)
(-0.0123056 0 0)
(-0.0100682 0 0)
(-0.00783086 0 0)
(-0.00559348 0 0)
(-0.00335609 0 0)
(-0.0011187 0 0)
)
;

boundaryField
{
    left
    {
        type            fixedValue;
        value           uniform (0 0 0);
    }
    right
    {
        type            fixedValue;
        value           uniform (0 0 0);
    }
    frontBackUpDown
    {
        type            empty;
    }
}


// ************************************************************************* //
