/*--------------------------------*- C++ -*----------------------------------*\
| =========                 |                                                 |
| \\      /  F ield         | OpenFOAM: The Open Source CFD Toolbox           |
|  \\    /   O peration     | Version:  2412                                  |
|   \\  /    A nd           | Website:  www.openfoam.com                      |
|    \\/     M anipulation  |                                                 |
\*---------------------------------------------------------------------------*/
FoamFile
{
    version     2.0;
    format      ascii;
    arch        "LSB;label=32;scalar=64";
    class       volVectorField;
    location    "0.8";
    object      U_0_0;
}
// * * * * * * * * * * * * * * * * * * * * * * * * * * * * * * * * * * * * * //

dimensions      [0 1 -1 0 0 0 0];

internalField   nonuniform List<vector> 
800
(
(0.00111969 0 0)
(0.00335908 0 0)
(0.00559847 0 0)
(0.00783785 0 0)
(0.0100772 0 0)
(0.0123166 0 0)
(0.0145559 0 0)
(0.0167952 0 0)
(0.0190345 0 0)
(0.0212738 0 0)
(0.023513 0 0)
(0.0257522 0 0)
(0.0279914 0 0)
(0.0302305 0 0)
(0.0324696 0 0)
(0.0347086 0 0)
(0.0369476 0 0)
(0.0391865 0 0)
(0.0414254 0 0)
(0.0436642 0 0)
(0.0459029 0 0)
(0.0481416 0 0)
(0.0503802 0 0)
(0.0526187 0 0)
(0.0548572 0 0)
(0.0570956 0 0)
(0.0593339 0 0)
(0.0615721 0 0)
(0.0638102 0 0)
(0.0660482 0 0)
(0.0682861 0 0)
(0.0705239 0 0)
(0.0727617 0 0)
(0.0749993 0 0)
(0.0772368 0 0)
(0.0794742 0 0)
(0.0817114 0 0)
(0.0839486 0 0)
(0.0861856 0 0)
(0.0884225 0 0)
(0.0906593 0 0)
(0.0928959 0 0)
(0.0951324 0 0)
(0.0973688 0 0)
(0.099605 0 0)
(0.101841 0 0)
(0.104077 0 0)
(0.106313 0 0)
(0.108548 0 0)
(0.110784 0 0)
(0.113019 0 0)
(0.115254 0 0)
(0.117489 0 0)
(0.119724 0 0)
(0.121959 0 0)
(0.124193 0 0)
(0.126427 0 0)
(0.128661 0 0)
(0.130895 0 0)
(0.133129 0 0)
(0.135362 0 0)
(0.137595 0 0)
(0.139828 0 0)
(0.142061 0 0)
(0.144294 0 0)
(0.146526 0 0)
(0.148759 0 0)
(0.150991 0 0)
(0.153222 0 0)
(0.155454 0 0)
(0.157685 0 0)
(0.159916 0 0)
(0.162147 0 0)
(0.164377 0 0)
(0.166608 0 0)
(0.168838 0 0)
(0.171068 0 0)
(0.173297 0 0)
(0.175527 0 0)
(0.177756 0 0)
(0.179984 0 0)
(0.182213 0 0)
(0.184441 0 0)
(0.186669 0 0)
(0.188897 0 0)
(0.191124 0 0)
(0.193351 0 0)
(0.195578 0 0)
(0.197804 0 0)
(0.20003 0 0)
(0.202256 0 0)
(0.204482 0 0)
(0.206707 0 0)
(0.208932 0 0)
(0.211157 0 0)
(0.213381 0 0)
(0.215605 0 0)
(0.217829 0 0)
(0.220052 0 0)
(0.222275 0 0)
(0.224497 0 0)
(0.22672 0 0)
(0.228942 0 0)
(0.231163 0 0)
(0.233384 0 0)
(0.235605 0 0)
(0.237826 0 0)
(0.240046 0 0)
(0.242266 0 0)
(0.244485 0 0)
(0.246704 0 0)
(0.248923 0 0)
(0.251141 0 0)
(0.253359 0 0)
(0.255576 0 0)
(0.257793 0 0)
(0.26001 0 0)
(0.262226 0 0)
(0.264442 0 0)
(0.266657 0 0)
(0.268872 0 0)
(0.271087 0 0)
(0.273301 0 0)
(0.275514 0 0)
(0.277728 0 0)
(0.27994 0 0)
(0.282153 0 0)
(0.284365 0 0)
(0.286576 0 0)
(0.288787 0 0)
(0.290998 0 0)
(0.293208 0 0)
(0.295417 0 0)
(0.297626 0 0)
(0.299835 0 0)
(0.302043 0 0)
(0.304251 0 0)
(0.306458 0 0)
(0.308665 0 0)
(0.310871 0 0)
(0.313077 0 0)
(0.315282 0 0)
(0.317486 0 0)
(0.31969 0 0)
(0.321894 0 0)
(0.324097 0 0)
(0.3263 0 0)
(0.328502 0 0)
(0.330703 0 0)
(0.332904 0 0)
(0.335104 0 0)
(0.337304 0 0)
(0.339504 0 0)
(0.341702 0 0)
(0.3439 0 0)
(0.346098 0 0)
(0.348295 0 0)
(0.350491 0 0)
(0.352687 0 0)
(0.354882 0 0)
(0.357077 0 0)
(0.359271 0 0)
(0.361464 0 0)
(0.363657 0 0)
(0.365849 0 0)
(0.368041 0 0)
(0.370232 0 0)
(0.372422 0 0)
(0.374612 0 0)
(0.376801 0 0)
(0.378989 0 0)
(0.381177 0 0)
(0.383364 0 0)
(0.385551 0 0)
(0.387736 0 0)
(0.389921 0 0)
(0.392106 0 0)
(0.394289 0 0)
(0.396473 0 0)
(0.398655 0 0)
(0.400836 0 0)
(0.403017 0 0)
(0.405198 0 0)
(0.407377 0 0)
(0.409556 0 0)
(0.411734 0 0)
(0.413911 0 0)
(0.416088 0 0)
(0.418264 0 0)
(0.420439 0 0)
(0.422613 0 0)
(0.424787 0 0)
(0.42696 0 0)
(0.429132 0 0)
(0.431303 0 0)
(0.433474 0 0)
(0.435644 0 0)
(0.437813 0 0)
(0.439981 0 0)
(0.442148 0 0)
(0.444315 0 0)
(0.44648 0 0)
(0.448645 0 0)
(0.450809 0 0)
(0.452972 0 0)
(0.455135 0 0)
(0.457296 0 0)
(0.459457 0 0)
(0.461617 0 0)
(0.463776 0 0)
(0.465934 0 0)
(0.468091 0 0)
(0.470248 0 0)
(0.472403 0 0)
(0.474558 0 0)
(0.476711 0 0)
(0.478864 0 0)
(0.481016 0 0)
(0.483167 0 0)
(0.485317 0 0)
(0.487466 0 0)
(0.489614 0 0)
(0.491761 0 0)
(0.493907 0 0)
(0.496052 0 0)
(0.498197 0 0)
(0.50034 0 0)
(0.502482 0 0)
(0.504624 0 0)
(0.506764 0 0)
(0.508903 0 0)
(0.511041 0 0)
(0.513179 0 0)
(0.515315 0 0)
(0.51745 0 0)
(0.519584 0 0)
(0.521717 0 0)
(0.523849 0 0)
(0.52598 0 0)
(0.52811 0 0)
(0.530239 0 0)
(0.532367 0 0)
(0.534493 0 0)
(0.536619 0 0)
(0.538743 0 0)
(0.540867 0 0)
(0.542989 0 0)
(0.54511 0 0)
(0.54723 0 0)
(0.549348 0 0)
(0.551466 0 0)
(0.553582 0 0)
(0.555698 0 0)
(0.557812 0 0)
(0.559924 0 0)
(0.562036 0 0)
(0.564146 0 0)
(0.566256 0 0)
(0.568364 0 0)
(0.57047 0 0)
(0.572576 0 0)
(0.57468 0 0)
(0.576783 0 0)
(0.578884 0 0)
(0.580985 0 0)
(0.583084 0 0)
(0.585182 0 0)
(0.587278 0 0)
(0.589373 0 0)
(0.591467 0 0)
(0.593559 0 0)
(0.595651 0 0)
(0.59774 0 0)
(0.599829 0 0)
(0.601916 0 0)
(0.604001 0 0)
(0.606085 0 0)
(0.608168 0 0)
(0.610249 0 0)
(0.612329 0 0)
(0.614408 0 0)
(0.616485 0 0)
(0.61856 0 0)
(0.620634 0 0)
(0.622707 0 0)
(0.624778 0 0)
(0.626847 0 0)
(0.628915 0 0)
(0.630982 0 0)
(0.633047 0 0)
(0.63511 0 0)
(0.637172 0 0)
(0.639232 0 0)
(0.64129 0 0)
(0.643347 0 0)
(0.645403 0 0)
(0.647456 0 0)
(0.649508 0 0)
(0.651559 0 0)
(0.653608 0 0)
(0.655655 0 0)
(0.6577 0 0)
(0.659744 0 0)
(0.661786 0 0)
(0.663826 0 0)
(0.665864 0 0)
(0.667901 0 0)
(0.669936 0 0)
(0.671969 0 0)
(0.674 0 0)
(0.676029 0 0)
(0.678057 0 0)
(0.680083 0 0)
(0.682107 0 0)
(0.684129 0 0)
(0.686149 0 0)
(0.688167 0 0)
(0.690183 0 0)
(0.692198 0 0)
(0.69421 0 0)
(0.69622 0 0)
(0.698229 0 0)
(0.700235 0 0)
(0.702239 0 0)
(0.704242 0 0)
(0.706242 0 0)
(0.70824 0 0)
(0.710236 0 0)
(0.71223 0 0)
(0.714222 0 0)
(0.716212 0 0)
(0.718199 0 0)
(0.720185 0 0)
(0.722168 0 0)
(0.724149 0 0)
(0.726128 0 0)
(0.728104 0 0)
(0.730078 0 0)
(0.73205 0 0)
(0.73402 0 0)
(0.735987 0 0)
(0.737952 0 0)
(0.739914 0 0)
(0.741874 0 0)
(0.743832 0 0)
(0.745787 0 0)
(0.74774 0 0)
(0.74969 0 0)
(0.751638 0 0)
(0.753583 0 0)
(0.755526 0 0)
(0.757466 0 0)
(0.759403 0 0)
(0.761338 0 0)
(0.763271 0 0)
(0.7652 0 0)
(0.767127 0 0)
(0.769051 0 0)
(0.770973 0 0)
(0.772891 0 0)
(0.774807 0 0)
(0.77672 0 0)
(0.77863 0 0)
(0.780538 0 0)
(0.782442 0 0)
(0.784343 0 0)
(0.786242 0 0)
(0.788137 0 0)
(0.79003 0 0)
(0.791919 0 0)
(0.793806 0 0)
(0.795689 0 0)
(0.797569 0 0)
(0.799446 0 0)
(0.801319 0 0)
(0.80319 0 0)
(0.805057 0 0)
(0.806921 0 0)
(0.808782 0 0)
(0.810639 0 0)
(0.812493 0 0)
(0.814343 0 0)
(0.81619 0 0)
(0.818033 0 0)
(0.819873 0 0)
(0.821709 0 0)
(0.823542 0 0)
(0.825371 0 0)
(0.827196 0 0)
(0.829017 0 0)
(0.830835 0 0)
(0.832649 0 0)
(0.834459 0 0)
(0.836265 0 0)
(0.838067 0 0)
(0.839866 0 0)
(0.84165 0 0)
(0.843779 0 0)
(0.831249 0 0)
(0.44991 0 0)
(-0.448649 0 0)
(-0.83111 0 0)
(-0.843779 0 0)
(-0.841648 0 0)
(-0.839863 0 0)
(-0.838065 0 0)
(-0.836263 0 0)
(-0.834457 0 0)
(-0.832647 0 0)
(-0.830833 0 0)
(-0.829015 0 0)
(-0.827194 0 0)
(-0.825368 0 0)
(-0.823539 0 0)
(-0.821707 0 0)
(-0.819871 0 0)
(-0.818031 0 0)
(-0.816187 0 0)
(-0.814341 0 0)
(-0.81249 0 0)
(-0.810636 0 0)
(-0.808779 0 0)
(-0.806919 0 0)
(-0.805055 0 0)
(-0.803188 0 0)
(-0.801317 0 0)
(-0.799443 0 0)
(-0.797566 0 0)
(-0.795686 0 0)
(-0.793803 0 0)
(-0.791917 0 0)
(-0.790027 0 0)
(-0.788135 0 0)
(-0.786239 0 0)
(-0.784341 0 0)
(-0.78244 0 0)
(-0.780535 0 0)
(-0.778628 0 0)
(-0.776718 0 0)
(-0.774805 0 0)
(-0.772889 0 0)
(-0.77097 0 0)
(-0.769049 0 0)
(-0.767125 0 0)
(-0.765198 0 0)
(-0.763268 0 0)
(-0.761336 0 0)
(-0.759401 0 0)
(-0.757464 0 0)
(-0.755523 0 0)
(-0.753581 0 0)
(-0.751636 0 0)
(-0.749688 0 0)
(-0.747738 0 0)
(-0.745785 0 0)
(-0.74383 0 0)
(-0.741872 0 0)
(-0.739912 0 0)
(-0.737949 0 0)
(-0.735984 0 0)
(-0.734017 0 0)
(-0.732048 0 0)
(-0.730076 0 0)
(-0.728102 0 0)
(-0.726125 0 0)
(-0.724147 0 0)
(-0.722166 0 0)
(-0.720182 0 0)
(-0.718197 0 0)
(-0.71621 0 0)
(-0.71422 0 0)
(-0.712228 0 0)
(-0.710234 0 0)
(-0.708238 0 0)
(-0.70624 0 0)
(-0.704239 0 0)
(-0.702237 0 0)
(-0.700233 0 0)
(-0.698226 0 0)
(-0.696218 0 0)
(-0.694208 0 0)
(-0.692195 0 0)
(-0.690181 0 0)
(-0.688165 0 0)
(-0.686147 0 0)
(-0.684126 0 0)
(-0.682104 0 0)
(-0.680081 0 0)
(-0.678055 0 0)
(-0.676027 0 0)
(-0.673998 0 0)
(-0.671967 0 0)
(-0.669933 0 0)
(-0.667899 0 0)
(-0.665862 0 0)
(-0.663824 0 0)
(-0.661783 0 0)
(-0.659742 0 0)
(-0.657698 0 0)
(-0.655653 0 0)
(-0.653606 0 0)
(-0.651557 0 0)
(-0.649506 0 0)
(-0.647454 0 0)
(-0.645401 0 0)
(-0.643345 0 0)
(-0.641288 0 0)
(-0.63923 0 0)
(-0.63717 0 0)
(-0.635108 0 0)
(-0.633045 0 0)
(-0.63098 0 0)
(-0.628913 0 0)
(-0.626845 0 0)
(-0.624776 0 0)
(-0.622705 0 0)
(-0.620632 0 0)
(-0.618558 0 0)
(-0.616483 0 0)
(-0.614406 0 0)
(-0.612327 0 0)
(-0.610247 0 0)
(-0.608166 0 0)
(-0.606083 0 0)
(-0.603999 0 0)
(-0.601914 0 0)
(-0.599827 0 0)
(-0.597738 0 0)
(-0.595649 0 0)
(-0.593558 0 0)
(-0.591465 0 0)
(-0.589371 0 0)
(-0.587276 0 0)
(-0.58518 0 0)
(-0.583082 0 0)
(-0.580983 0 0)
(-0.578883 0 0)
(-0.576781 0 0)
(-0.574678 0 0)
(-0.572574 0 0)
(-0.570469 0 0)
(-0.568362 0 0)
(-0.566254 0 0)
(-0.564145 0 0)
(-0.562034 0 0)
(-0.559923 0 0)
(-0.55781 0 0)
(-0.555696 0 0)
(-0.553581 0 0)
(-0.551464 0 0)
(-0.549347 0 0)
(-0.547228 0 0)
(-0.545108 0 0)
(-0.542987 0 0)
(-0.540865 0 0)
(-0.538742 0 0)
(-0.536617 0 0)
(-0.534492 0 0)
(-0.532365 0 0)
(-0.530238 0 0)
(-0.528109 0 0)
(-0.525979 0 0)
(-0.523848 0 0)
(-0.521716 0 0)
(-0.519583 0 0)
(-0.517449 0 0)
(-0.515313 0 0)
(-0.513177 0 0)
(-0.51104 0 0)
(-0.508902 0 0)
(-0.506762 0 0)
(-0.504622 0 0)
(-0.502481 0 0)
(-0.500339 0 0)
(-0.498195 0 0)
(-0.496051 0 0)
(-0.493906 0 0)
(-0.49176 0 0)
(-0.489613 0 0)
(-0.487464 0 0)
(-0.485315 0 0)
(-0.483165 0 0)
(-0.481015 0 0)
(-0.478863 0 0)
(-0.47671 0 0)
(-0.474556 0 0)
(-0.472402 0 0)
(-0.470246 0 0)
(-0.46809 0 0)
(-0.465933 0 0)
(-0.463775 0 0)
(-0.461616 0 0)
(-0.459456 0 0)
(-0.457295 0 0)
(-0.455134 0 0)
(-0.452971 0 0)
(-0.450808 0 0)
(-0.448644 0 0)
(-0.446479 0 0)
(-0.444313 0 0)
(-0.442147 0 0)
(-0.43998 0 0)
(-0.437811 0 0)
(-0.435642 0 0)
(-0.433473 0 0)
(-0.431302 0 0)
(-0.429131 0 0)
(-0.426959 0 0)
(-0.424786 0 0)
(-0.422612 0 0)
(-0.420438 0 0)
(-0.418263 0 0)
(-0.416087 0 0)
(-0.41391 0 0)
(-0.411733 0 0)
(-0.409555 0 0)
(-0.407376 0 0)
(-0.405197 0 0)
(-0.403017 0 0)
(-0.400836 0 0)
(-0.398654 0 0)
(-0.396472 0 0)
(-0.394289 0 0)
(-0.392105 0 0)
(-0.38992 0 0)
(-0.387735 0 0)
(-0.38555 0 0)
(-0.383363 0 0)
(-0.381176 0 0)
(-0.378988 0 0)
(-0.3768 0 0)
(-0.374611 0 0)
(-0.372421 0 0)
(-0.370231 0 0)
(-0.36804 0 0)
(-0.365849 0 0)
(-0.363656 0 0)
(-0.361464 0 0)
(-0.35927 0 0)
(-0.357076 0 0)
(-0.354882 0 0)
(-0.352686 0 0)
(-0.350491 0 0)
(-0.348294 0 0)
(-0.346097 0 0)
(-0.3439 0 0)
(-0.341702 0 0)
(-0.339503 0 0)
(-0.337304 0 0)
(-0.335104 0 0)
(-0.332903 0 0)
(-0.330703 0 0)
(-0.328501 0 0)
(-0.326299 0 0)
(-0.324097 0 0)
(-0.321893 0 0)
(-0.31969 0 0)
(-0.317486 0 0)
(-0.315281 0 0)
(-0.313076 0 0)
(-0.31087 0 0)
(-0.308664 0 0)
(-0.306457 0 0)
(-0.30425 0 0)
(-0.302043 0 0)
(-0.299834 0 0)
(-0.297626 0 0)
(-0.295417 0 0)
(-0.293207 0 0)
(-0.290997 0 0)
(-0.288787 0 0)
(-0.286576 0 0)
(-0.284364 0 0)
(-0.282152 0 0)
(-0.27994 0 0)
(-0.277727 0 0)
(-0.275514 0 0)
(-0.2733 0 0)
(-0.271086 0 0)
(-0.268872 0 0)
(-0.266657 0 0)
(-0.264441 0 0)
(-0.262226 0 0)
(-0.260009 0 0)
(-0.257793 0 0)
(-0.255576 0 0)
(-0.253358 0 0)
(-0.25114 0 0)
(-0.248922 0 0)
(-0.246704 0 0)
(-0.244485 0 0)
(-0.242265 0 0)
(-0.240046 0 0)
(-0.237825 0 0)
(-0.235605 0 0)
(-0.233384 0 0)
(-0.231163 0 0)
(-0.228941 0 0)
(-0.226719 0 0)
(-0.224497 0 0)
(-0.222275 0 0)
(-0.220052 0 0)
(-0.217828 0 0)
(-0.215605 0 0)
(-0.213381 0 0)
(-0.211156 0 0)
(-0.208932 0 0)
(-0.206707 0 0)
(-0.204482 0 0)
(-0.202256 0 0)
(-0.20003 0 0)
(-0.197804 0 0)
(-0.195578 0 0)
(-0.193351 0 0)
(-0.191124 0 0)
(-0.188896 0 0)
(-0.186669 0 0)
(-0.184441 0 0)
(-0.182213 0 0)
(-0.179984 0 0)
(-0.177755 0 0)
(-0.175526 0 0)
(-0.173297 0 0)
(-0.171067 0 0)
(-0.168838 0 0)
(-0.166608 0 0)
(-0.164377 0 0)
(-0.162147 0 0)
(-0.159916 0 0)
(-0.157685 0 0)
(-0.155454 0 0)
(-0.153222 0 0)
(-0.15099 0 0)
(-0.148758 0 0)
(-0.146526 0 0)
(-0.144294 0 0)
(-0.142061 0 0)
(-0.139828 0 0)
(-0.137595 0 0)
(-0.135362 0 0)
(-0.133129 0 0)
(-0.130895 0 0)
(-0.128661 0 0)
(-0.126427 0 0)
(-0.124193 0 0)
(-0.121958 0 0)
(-0.119724 0 0)
(-0.117489 0 0)
(-0.115254 0 0)
(-0.113019 0 0)
(-0.110784 0 0)
(-0.108548 0 0)
(-0.106313 0 0)
(-0.104077 0 0)
(-0.101841 0 0)
(-0.0996049 0 0)
(-0.0973687 0 0)
(-0.0951324 0 0)
(-0.0928959 0 0)
(-0.0906592 0 0)
(-0.0884225 0 0)
(-0.0861856 0 0)
(-0.0839485 0 0)
(-0.0817114 0 0)
(-0.0794741 0 0)
(-0.0772367 0 0)
(-0.0749992 0 0)
(-0.0727616 0 0)
(-0.0705239 0 0)
(-0.0682861 0 0)
(-0.0660482 0 0)
(-0.0638101 0 0)
(-0.061572 0 0)
(-0.0593338 0 0)
(-0.0570955 0 0)
(-0.0548572 0 0)
(-0.0526187 0 0)
(-0.0503802 0 0)
(-0.0481416 0 0)
(-0.0459029 0 0)
(-0.0436642 0 0)
(-0.0414254 0 0)
(-0.0391865 0 0)
(-0.0369476 0 0)
(-0.0347086 0 0)
(-0.0324696 0 0)
(-0.0302305 0 0)
(-0.0279914 0 0)
(-0.0257522 0 0)
(-0.023513 0 0)
(-0.0212738 0 0)
(-0.0190345 0 0)
(-0.0167952 0 0)
(-0.0145559 0 0)
(-0.0123166 0 0)
(-0.0100772 0 0)
(-0.00783786 0 0)
(-0.00559848 0 0)
(-0.00335909 0 0)
(-0.0011197 0 0)
)
;

boundaryField
{
    left
    {
        type            fixedValue;
        value           uniform (0 0 0);
    }
    right
    {
        type            fixedValue;
        value           uniform (0 0 0);
    }
    frontBackUpDown
    {
        type            empty;
    }
}


// ************************************************************************* //
