/*--------------------------------*- C++ -*----------------------------------*\
| =========                 |                                                 |
| \\      /  F ield         | OpenFOAM: The Open Source CFD Toolbox           |
|  \\    /   O peration     | Version:  2412                                  |
|   \\  /    A nd           | Website:  www.openfoam.com                      |
|    \\/     M anipulation  |                                                 |
\*---------------------------------------------------------------------------*/
FoamFile
{
    version     2.0;
    format      ascii;
    arch        "LSB;label=32;scalar=64";
    class       surfaceScalarField;
    location    "0.37";
    object      phi;
}
// * * * * * * * * * * * * * * * * * * * * * * * * * * * * * * * * * * * * * //

dimensions      [0 3 -1 0 0 0 0];

oriented        oriented;

internalField   nonuniform List<scalar> 
799
(
3.63278e-05
7.26556e-05
0.000108983
0.00014531
0.000181635
0.00021796
0.000254284
0.000290605
0.000326925
0.000363243
0.000399559
0.000435872
0.000472183
0.00050849
0.000544795
0.000581096
0.000617394
0.000653687
0.000689977
0.000726262
0.000762543
0.00079882
0.000835091
0.000871357
0.000907617
0.000943872
0.000980122
0.00101636
0.0010526
0.00108883
0.00112505
0.00116127
0.00119748
0.00123368
0.00126988
0.00130606
0.00134224
0.00137841
0.00141457
0.00145072
0.00148687
0.001523
0.00155912
0.00159524
0.00163134
0.00166743
0.00170352
0.00173959
0.00177565
0.0018117
0.00184774
0.00188377
0.00191978
0.00195579
0.00199178
0.00202776
0.00206372
0.00209967
0.00213561
0.00217154
0.00220745
0.00224334
0.00227922
0.00231509
0.00235094
0.00238678
0.0024226
0.00245841
0.0024942
0.00252998
0.00256573
0.00260147
0.0026372
0.00267291
0.00270859
0.00274427
0.00277992
0.00281556
0.00285117
0.00288677
0.00292235
0.00295791
0.00299345
0.00302897
0.00306447
0.00309995
0.00313541
0.00317085
0.00320626
0.00324166
0.00327703
0.00331238
0.00334771
0.00338302
0.0034183
0.00345356
0.0034888
0.00352401
0.0035592
0.00359436
0.0036295
0.00366461
0.0036997
0.00373477
0.0037698
0.00380482
0.0038398
0.00387476
0.00390969
0.00394459
0.00397947
0.00401432
0.00404913
0.00408392
0.00411869
0.00415342
0.00418812
0.00422279
0.00425743
0.00429204
0.00432662
0.00436117
0.00439569
0.00443018
0.00446463
0.00449905
0.00453343
0.00456779
0.00460211
0.00463639
0.00467064
0.00470486
0.00473904
0.00477319
0.00480729
0.00484137
0.0048754
0.0049094
0.00494336
0.00497729
0.00501117
0.00504502
0.00507883
0.0051126
0.00514632
0.00518001
0.00521366
0.00524727
0.00528083
0.00531436
0.00534784
0.00538127
0.00541467
0.00544802
0.00548133
0.00551459
0.00554781
0.00558098
0.00561411
0.00564719
0.00568022
0.00571321
0.00574615
0.00577904
0.00581188
0.00584468
0.00587742
0.00591011
0.00594276
0.00597535
0.00600789
0.00604038
0.00607281
0.0061052
0.00613753
0.0061698
0.00620202
0.00623419
0.0062663
0.00629835
0.00633035
0.00636228
0.00639417
0.00642599
0.00645775
0.00648945
0.0065211
0.00655268
0.0065842
0.00661566
0.00664705
0.00667839
0.00670965
0.00674086
0.006772
0.00680307
0.00683407
0.00686501
0.00689588
0.00692669
0.00695742
0.00698808
0.00701867
0.00704919
0.00707964
0.00711001
0.00714031
0.00717054
0.00720069
0.00723077
0.00726077
0.00729069
0.00732053
0.00735029
0.00737998
0.00740958
0.0074391
0.00746854
0.0074979
0.00752717
0.00755635
0.00758545
0.00761446
0.00764339
0.00767222
0.00770097
0.00772963
0.00775819
0.00778666
0.00781504
0.00784332
0.0078715
0.00789959
0.00792759
0.00795548
0.00798327
0.00801096
0.00803855
0.00806603
0.00809342
0.00812069
0.00814786
0.00817492
0.00820187
0.0082287
0.00825543
0.00828204
0.00830854
0.00833493
0.00836119
0.00838734
0.00841336
0.00843927
0.00846505
0.00849071
0.00851624
0.00854164
0.00856692
0.00859206
0.00861707
0.00864195
0.00866669
0.00869129
0.00871576
0.00874008
0.00876427
0.0087883
0.00881219
0.00883594
0.00885953
0.00888297
0.00890626
0.00892939
0.00895236
0.00897517
0.00899782
0.00902031
0.00904262
0.00906477
0.00908675
0.00910855
0.00913018
0.00915163
0.00917289
0.00919397
0.00921487
0.00923558
0.00925609
0.00927641
0.00929653
0.00931645
0.00933617
0.00935567
0.00937497
0.00939406
0.00941293
0.00943158
0.00945
0.0094682
0.00948617
0.0095039
0.00952139
0.00953864
0.00955565
0.00957241
0.00958891
0.00960515
0.00962113
0.00963684
0.00965227
0.00966743
0.00968231
0.0096969
0.0097112
0.0097252
0.00973889
0.00975228
0.00976535
0.00977809
0.00979052
0.0098026
0.00981435
0.00982575
0.00983679
0.00984748
0.00985779
0.00986773
0.00987728
0.00988644
0.00989519
0.00990354
0.00991146
0.00991896
0.00992602
0.00993263
0.00993878
0.00994445
0.00994965
0.00995435
0.00995855
0.00996222
0.00996537
0.00996797
0.00997
0.00997147
0.00997234
0.0099726
0.00997224
0.00997124
0.00996958
0.00996723
0.00996419
0.00996042
0.0099559
0.00995062
0.00994455
0.00993765
0.0099299
0.00992128
0.00991175
0.00990128
0.00988984
0.00987738
0.00986387
0.00984927
0.00983353
0.00981661
0.00979845
0.009779
0.00975821
0.00973601
0.00971234
0.00968711
0.00966026
0.0096317
0.00960133
0.00956906
0.00953477
0.00949835
0.00945965
0.00941853
0.00937483
0.00932836
0.00927891
0.00922624
0.0091701
0.00911017
0.00904611
0.00897749
0.00890383
0.00882455
0.00873893
0.00864611
0.00854495
0.008434
0.00831137
0.00816874
0.00778168
0.00555894
3.56511e-06
-0.00555444
-0.00778058
-0.00816846
-0.00831117
-0.00843382
-0.00854479
-0.00864596
-0.00873881
-0.00882444
-0.00890373
-0.0089774
-0.00904603
-0.0091101
-0.00917003
-0.00922618
-0.00927885
-0.0093283
-0.00937478
-0.00941849
-0.00945961
-0.00949831
-0.00953474
-0.00956903
-0.00960131
-0.00963168
-0.00966024
-0.00968709
-0.00971232
-0.009736
-0.0097582
-0.00977899
-0.00979844
-0.0098166
-0.00983352
-0.00984926
-0.00986386
-0.00987737
-0.00988983
-0.00990128
-0.00991175
-0.00992128
-0.0099299
-0.00993765
-0.00994454
-0.00995062
-0.0099559
-0.00996042
-0.00996418
-0.00996723
-0.00996958
-0.00997124
-0.00997224
-0.0099726
-0.00997234
-0.00997147
-0.00997
-0.00996797
-0.00996537
-0.00996222
-0.00995855
-0.00995435
-0.00994965
-0.00994445
-0.00993877
-0.00993263
-0.00992602
-0.00991896
-0.00991146
-0.00990354
-0.00989519
-0.00988643
-0.00987727
-0.00986772
-0.00985779
-0.00984747
-0.00983679
-0.00982574
-0.00981434
-0.0098026
-0.00979051
-0.00977809
-0.00976534
-0.00975227
-0.00973888
-0.00972519
-0.00971119
-0.00969689
-0.0096823
-0.00966742
-0.00965226
-0.00963683
-0.00962112
-0.00960514
-0.0095889
-0.0095724
-0.00955564
-0.00953863
-0.00952138
-0.00950389
-0.00948615
-0.00946819
-0.00944999
-0.00943156
-0.00941292
-0.00939405
-0.00937496
-0.00935566
-0.00933615
-0.00931644
-0.00929652
-0.00927639
-0.00925608
-0.00923556
-0.00921486
-0.00919396
-0.00917288
-0.00915161
-0.00913016
-0.00910854
-0.00908673
-0.00906476
-0.00904261
-0.00902029
-0.00899781
-0.00897516
-0.00895234
-0.00892937
-0.00890624
-0.00888295
-0.00885951
-0.00883592
-0.00881218
-0.00878829
-0.00876425
-0.00874007
-0.00871574
-0.00869128
-0.00866667
-0.00864193
-0.00861705
-0.00859204
-0.0085669
-0.00854162
-0.00851622
-0.00849069
-0.00846503
-0.00843925
-0.00841334
-0.00838732
-0.00836117
-0.00833491
-0.00830852
-0.00828202
-0.00825541
-0.00822868
-0.00820185
-0.0081749
-0.00814784
-0.00812067
-0.00809339
-0.00806601
-0.00803853
-0.00801094
-0.00798325
-0.00795546
-0.00792756
-0.00789957
-0.00787148
-0.0078433
-0.00781502
-0.00778664
-0.00775817
-0.0077296
-0.00770095
-0.0076722
-0.00764337
-0.00761444
-0.00758543
-0.00755633
-0.00752715
-0.00749787
-0.00746852
-0.00743908
-0.00740956
-0.00737996
-0.00735027
-0.00732051
-0.00729067
-0.00726075
-0.00723075
-0.00720067
-0.00717052
-0.00714029
-0.00710999
-0.00707962
-0.00704917
-0.00701865
-0.00698806
-0.0069574
-0.00692666
-0.00689586
-0.00686499
-0.00683405
-0.00680305
-0.00677198
-0.00674084
-0.00670964
-0.00667837
-0.00664703
-0.00661564
-0.00658418
-0.00655266
-0.00652108
-0.00648944
-0.00645773
-0.00642597
-0.00639415
-0.00636227
-0.00633033
-0.00629833
-0.00626628
-0.00623417
-0.006202
-0.00616978
-0.00613751
-0.00610518
-0.0060728
-0.00604036
-0.00600787
-0.00597533
-0.00594274
-0.0059101
-0.0058774
-0.00584466
-0.00581187
-0.00577902
-0.00574613
-0.00571319
-0.00568021
-0.00564717
-0.00561409
-0.00558097
-0.00554779
-0.00551458
-0.00548131
-0.00544801
-0.00541465
-0.00538126
-0.00534782
-0.00531434
-0.00528082
-0.00524725
-0.00521365
-0.00518
-0.00514631
-0.00511258
-0.00507881
-0.00504501
-0.00501116
-0.00497727
-0.00494335
-0.00490939
-0.00487539
-0.00484136
-0.00480728
-0.00477317
-0.00473903
-0.00470485
-0.00467063
-0.00463638
-0.0046021
-0.00456778
-0.00453342
-0.00449904
-0.00446462
-0.00443016
-0.00439568
-0.00436116
-0.00432661
-0.00429203
-0.00425742
-0.00422278
-0.00418811
-0.00415341
-0.00411868
-0.00408392
-0.00404913
-0.00401431
-0.00397946
-0.00394458
-0.00390968
-0.00387475
-0.00383979
-0.00380481
-0.0037698
-0.00373476
-0.0036997
-0.00366461
-0.00362949
-0.00359435
-0.00355919
-0.003524
-0.00348879
-0.00345355
-0.00341829
-0.00338301
-0.0033477
-0.00331238
-0.00327702
-0.00324165
-0.00320626
-0.00317084
-0.0031354
-0.00309994
-0.00306446
-0.00302896
-0.00299344
-0.0029579
-0.00292234
-0.00288677
-0.00285117
-0.00281555
-0.00277992
-0.00274426
-0.00270859
-0.0026729
-0.00263719
-0.00260147
-0.00256573
-0.00252997
-0.0024942
-0.00245841
-0.0024226
-0.00238678
-0.00235094
-0.00231509
-0.00227922
-0.00224334
-0.00220744
-0.00217153
-0.00213561
-0.00209967
-0.00206372
-0.00202775
-0.00199178
-0.00195578
-0.00191978
-0.00188377
-0.00184774
-0.0018117
-0.00177565
-0.00173959
-0.00170352
-0.00166743
-0.00163134
-0.00159524
-0.00155912
-0.001523
-0.00148686
-0.00145072
-0.00141457
-0.00137841
-0.00134224
-0.00130606
-0.00126988
-0.00123368
-0.00119748
-0.00116127
-0.00112505
-0.00108883
-0.0010526
-0.00101636
-0.000980121
-0.000943872
-0.000907617
-0.000871356
-0.00083509
-0.000798819
-0.000762543
-0.000726262
-0.000689977
-0.000653687
-0.000617393
-0.000581096
-0.000544795
-0.00050849
-0.000472183
-0.000435872
-0.000399559
-0.000363243
-0.000326925
-0.000290605
-0.000254284
-0.00021796
-0.000181636
-0.00014531
-0.000108983
-7.26558e-05
-3.6328e-05
)
;

boundaryField
{
    left
    {
        type            calculated;
        value           uniform 0;
    }
    right
    {
        type            calculated;
        value           uniform 0;
    }
    frontBackUpDown
    {
        type            empty;
    }
}


// ************************************************************************* //
