/*--------------------------------*- C++ -*----------------------------------*\
| =========                 |                                                 |
| \\      /  F ield         | OpenFOAM: The Open Source CFD Toolbox           |
|  \\    /   O peration     | Version:  2412                                  |
|   \\  /    A nd           | Website:  www.openfoam.com                      |
|    \\/     M anipulation  |                                                 |
\*---------------------------------------------------------------------------*/
FoamFile
{
    version     2.0;
    format      ascii;
    arch        "LSB;label=32;scalar=64";
    class       volVectorField;
    location    "0.37";
    object      U_0_0_0;
}
// * * * * * * * * * * * * * * * * * * * * * * * * * * * * * * * * * * * * * //

dimensions      [0 1 -1 0 0 0 0];

internalField   nonuniform List<vector> 
800
(
(0.00182034 0 0)
(0.00546106 0 0)
(0.00910175 0 0)
(0.0127424 0 0)
(0.0163829 0 0)
(0.0200234 0 0)
(0.0236637 0 0)
(0.0273039 0 0)
(0.0309439 0 0)
(0.0345837 0 0)
(0.0382233 0 0)
(0.0418627 0 0)
(0.0455018 0 0)
(0.0491406 0 0)
(0.0527792 0 0)
(0.0564173 0 0)
(0.0600552 0 0)
(0.0636926 0 0)
(0.0673297 0 0)
(0.0709664 0 0)
(0.0746026 0 0)
(0.0782383 0 0)
(0.0818736 0 0)
(0.0855083 0 0)
(0.0891425 0 0)
(0.0927762 0 0)
(0.0964092 0 0)
(0.100042 0 0)
(0.103674 0 0)
(0.107305 0 0)
(0.110935 0 0)
(0.114565 0 0)
(0.118194 0 0)
(0.121823 0 0)
(0.12545 0 0)
(0.129077 0 0)
(0.132703 0 0)
(0.136328 0 0)
(0.139952 0 0)
(0.143576 0 0)
(0.147198 0 0)
(0.15082 0 0)
(0.154441 0 0)
(0.15806 0 0)
(0.161679 0 0)
(0.165297 0 0)
(0.168913 0 0)
(0.172529 0 0)
(0.176143 0 0)
(0.179756 0 0)
(0.183368 0 0)
(0.186979 0 0)
(0.190589 0 0)
(0.194198 0 0)
(0.197805 0 0)
(0.201411 0 0)
(0.205016 0 0)
(0.208619 0 0)
(0.212221 0 0)
(0.215822 0 0)
(0.219422 0 0)
(0.223019 0 0)
(0.226616 0 0)
(0.230211 0 0)
(0.233804 0 0)
(0.237396 0 0)
(0.240987 0 0)
(0.244576 0 0)
(0.248163 0 0)
(0.251749 0 0)
(0.255333 0 0)
(0.258915 0 0)
(0.262496 0 0)
(0.266075 0 0)
(0.269652 0 0)
(0.273227 0 0)
(0.276801 0 0)
(0.280373 0 0)
(0.283943 0 0)
(0.287511 0 0)
(0.291077 0 0)
(0.294641 0 0)
(0.298203 0 0)
(0.301764 0 0)
(0.305322 0 0)
(0.308878 0 0)
(0.312432 0 0)
(0.315984 0 0)
(0.319534 0 0)
(0.323082 0 0)
(0.326627 0 0)
(0.330171 0 0)
(0.333712 0 0)
(0.33725 0 0)
(0.340787 0 0)
(0.344321 0 0)
(0.347853 0 0)
(0.351382 0 0)
(0.354909 0 0)
(0.358434 0 0)
(0.361956 0 0)
(0.365475 0 0)
(0.368992 0 0)
(0.372507 0 0)
(0.376019 0 0)
(0.379528 0 0)
(0.383034 0 0)
(0.386538 0 0)
(0.390039 0 0)
(0.393538 0 0)
(0.397033 0 0)
(0.400526 0 0)
(0.404016 0 0)
(0.407503 0 0)
(0.410987 0 0)
(0.414469 0 0)
(0.417947 0 0)
(0.421422 0 0)
(0.424894 0 0)
(0.428363 0 0)
(0.431829 0 0)
(0.435292 0 0)
(0.438752 0 0)
(0.442208 0 0)
(0.445661 0 0)
(0.449111 0 0)
(0.452558 0 0)
(0.456001 0 0)
(0.459441 0 0)
(0.462877 0 0)
(0.46631 0 0)
(0.469739 0 0)
(0.473165 0 0)
(0.476587 0 0)
(0.480006 0 0)
(0.483421 0 0)
(0.486832 0 0)
(0.49024 0 0)
(0.493644 0 0)
(0.497044 0 0)
(0.50044 0 0)
(0.503833 0 0)
(0.507221 0 0)
(0.510605 0 0)
(0.513986 0 0)
(0.517362 0 0)
(0.520735 0 0)
(0.524103 0 0)
(0.527467 0 0)
(0.530827 0 0)
(0.534182 0 0)
(0.537534 0 0)
(0.540881 0 0)
(0.544223 0 0)
(0.547562 0 0)
(0.550895 0 0)
(0.554224 0 0)
(0.557549 0 0)
(0.560869 0 0)
(0.564185 0 0)
(0.567495 0 0)
(0.570801 0 0)
(0.574102 0 0)
(0.577399 0 0)
(0.58069 0 0)
(0.583977 0 0)
(0.587258 0 0)
(0.590535 0 0)
(0.593806 0 0)
(0.597073 0 0)
(0.600334 0 0)
(0.60359 0 0)
(0.606841 0 0)
(0.610086 0 0)
(0.613326 0 0)
(0.61656 0 0)
(0.619789 0 0)
(0.623013 0 0)
(0.626231 0 0)
(0.629443 0 0)
(0.632649 0 0)
(0.63585 0 0)
(0.639045 0 0)
(0.642234 0 0)
(0.645417 0 0)
(0.648594 0 0)
(0.651765 0 0)
(0.65493 0 0)
(0.658089 0 0)
(0.661241 0 0)
(0.664387 0 0)
(0.667527 0 0)
(0.670661 0 0)
(0.673787 0 0)
(0.676908 0 0)
(0.680021 0 0)
(0.683128 0 0)
(0.686229 0 0)
(0.689322 0 0)
(0.692408 0 0)
(0.695488 0 0)
(0.69856 0 0)
(0.701626 0 0)
(0.704684 0 0)
(0.707735 0 0)
(0.710779 0 0)
(0.713815 0 0)
(0.716843 0 0)
(0.719865 0 0)
(0.722878 0 0)
(0.725884 0 0)
(0.728882 0 0)
(0.731872 0 0)
(0.734854 0 0)
(0.737828 0 0)
(0.740794 0 0)
(0.743752 0 0)
(0.746702 0 0)
(0.749643 0 0)
(0.752576 0 0)
(0.7555 0 0)
(0.758415 0 0)
(0.761322 0 0)
(0.76422 0 0)
(0.767109 0 0)
(0.769989 0 0)
(0.77286 0 0)
(0.775721 0 0)
(0.778573 0 0)
(0.781416 0 0)
(0.78425 0 0)
(0.787073 0 0)
(0.789887 0 0)
(0.792692 0 0)
(0.795486 0 0)
(0.79827 0 0)
(0.801044 0 0)
(0.803807 0 0)
(0.806561 0 0)
(0.809303 0 0)
(0.812036 0 0)
(0.814757 0 0)
(0.817467 0 0)
(0.820167 0 0)
(0.822855 0 0)
(0.825532 0 0)
(0.828198 0 0)
(0.830852 0 0)
(0.833495 0 0)
(0.836125 0 0)
(0.838744 0 0)
(0.841351 0 0)
(0.843945 0 0)
(0.846527 0 0)
(0.849097 0 0)
(0.851654 0 0)
(0.854198 0 0)
(0.856729 0 0)
(0.859247 0 0)
(0.861752 0 0)
(0.864243 0 0)
(0.866721 0 0)
(0.869185 0 0)
(0.871635 0 0)
(0.87407 0 0)
(0.876492 0 0)
(0.878899 0 0)
(0.881291 0 0)
(0.883668 0 0)
(0.88603 0 0)
(0.888377 0 0)
(0.890709 0 0)
(0.893025 0 0)
(0.895324 0 0)
(0.897608 0 0)
(0.899876 0 0)
(0.902127 0 0)
(0.904361 0 0)
(0.906578 0 0)
(0.908778 0 0)
(0.91096 0 0)
(0.913125 0 0)
(0.915272 0 0)
(0.9174 0 0)
(0.91951 0 0)
(0.921601 0 0)
(0.923674 0 0)
(0.925727 0 0)
(0.92776 0 0)
(0.929773 0 0)
(0.931767 0 0)
(0.933739 0 0)
(0.935691 0 0)
(0.937622 0 0)
(0.939532 0 0)
(0.94142 0 0)
(0.943285 0 0)
(0.945128 0 0)
(0.946949 0 0)
(0.948746 0 0)
(0.950519 0 0)
(0.952269 0 0)
(0.953995 0 0)
(0.955695 0 0)
(0.957371 0 0)
(0.959021 0 0)
(0.960644 0 0)
(0.962242 0 0)
(0.963812 0 0)
(0.965356 0 0)
(0.966871 0 0)
(0.968358 0 0)
(0.969816 0 0)
(0.971245 0 0)
(0.972643 0 0)
(0.974012 0 0)
(0.975349 0 0)
(0.976654 0 0)
(0.977927 0 0)
(0.979168 0 0)
(0.980375 0 0)
(0.981547 0 0)
(0.982685 0 0)
(0.983787 0 0)
(0.984853 0 0)
(0.985882 0 0)
(0.986873 0 0)
(0.987825 0 0)
(0.988738 0 0)
(0.989611 0 0)
(0.990442 0 0)
(0.991232 0 0)
(0.991978 0 0)
(0.99268 0 0)
(0.993337 0 0)
(0.993948 0 0)
(0.994512 0 0)
(0.995027 0 0)
(0.995493 0 0)
(0.995908 0 0)
(0.996271 0 0)
(0.996581 0 0)
(0.996836 0 0)
(0.997035 0 0)
(0.997176 0 0)
(0.997258 0 0)
(0.997279 0 0)
(0.997237 0 0)
(0.997131 0 0)
(0.996958 0 0)
(0.996718 0 0)
(0.996407 0 0)
(0.996024 0 0)
(0.995566 0 0)
(0.995031 0 0)
(0.994417 0 0)
(0.993721 0 0)
(0.992939 0 0)
(0.99207 0 0)
(0.99111 0 0)
(0.990056 0 0)
(0.988904 0 0)
(0.987651 0 0)
(0.986293 0 0)
(0.984825 0 0)
(0.983244 0 0)
(0.981544 0 0)
(0.979721 0 0)
(0.977769 0 0)
(0.975683 0 0)
(0.973456 0 0)
(0.971082 0 0)
(0.968553 0 0)
(0.965861 0 0)
(0.962999 0 0)
(0.959958 0 0)
(0.956726 0 0)
(0.953293 0 0)
(0.949647 0 0)
(0.945776 0 0)
(0.941663 0 0)
(0.937294 0 0)
(0.932649 0 0)
(0.927708 0 0)
(0.922449 0 0)
(0.916846 0 0)
(0.910867 0 0)
(0.90448 0 0)
(0.897643 0 0)
(0.89031 0 0)
(0.882424 0 0)
(0.873916 0 0)
(0.864704 0 0)
(0.854682 0 0)
(0.843712 0 0)
(0.831611 0 0)
(0.818122 0 0)
(0.801265 0 0)
(0.735271 0 0)
(0.355203 0 0)
(-0.354516 0 0)
(-0.73508 0 0)
(-0.801228 0 0)
(-0.818099 0 0)
(-0.831591 0 0)
(-0.843694 0 0)
(-0.854666 0 0)
(-0.86469 0 0)
(-0.873904 0 0)
(-0.882412 0 0)
(-0.8903 0 0)
(-0.897634 0 0)
(-0.904472 0 0)
(-0.91086 0 0)
(-0.916839 0 0)
(-0.922443 0 0)
(-0.927703 0 0)
(-0.932644 0 0)
(-0.937289 0 0)
(-0.941659 0 0)
(-0.945772 0 0)
(-0.949644 0 0)
(-0.95329 0 0)
(-0.956723 0 0)
(-0.959955 0 0)
(-0.962997 0 0)
(-0.965859 0 0)
(-0.968551 0 0)
(-0.97108 0 0)
(-0.973454 0 0)
(-0.975682 0 0)
(-0.977768 0 0)
(-0.97972 0 0)
(-0.981543 0 0)
(-0.983243 0 0)
(-0.984824 0 0)
(-0.986292 0 0)
(-0.98765 0 0)
(-0.988903 0 0)
(-0.990055 0 0)
(-0.99111 0 0)
(-0.99207 0 0)
(-0.992939 0 0)
(-0.99372 0 0)
(-0.994417 0 0)
(-0.995031 0 0)
(-0.995566 0 0)
(-0.996024 0 0)
(-0.996407 0 0)
(-0.996718 0 0)
(-0.996958 0 0)
(-0.997131 0 0)
(-0.997237 0 0)
(-0.997278 0 0)
(-0.997258 0 0)
(-0.997176 0 0)
(-0.997035 0 0)
(-0.996836 0 0)
(-0.996581 0 0)
(-0.996271 0 0)
(-0.995908 0 0)
(-0.995493 0 0)
(-0.995027 0 0)
(-0.994512 0 0)
(-0.993948 0 0)
(-0.993337 0 0)
(-0.99268 0 0)
(-0.991978 0 0)
(-0.991231 0 0)
(-0.990442 0 0)
(-0.989611 0 0)
(-0.988738 0 0)
(-0.987825 0 0)
(-0.986873 0 0)
(-0.985882 0 0)
(-0.984853 0 0)
(-0.983787 0 0)
(-0.982685 0 0)
(-0.981547 0 0)
(-0.980374 0 0)
(-0.979167 0 0)
(-0.977927 0 0)
(-0.976654 0 0)
(-0.975348 0 0)
(-0.974011 0 0)
(-0.972643 0 0)
(-0.971244 0 0)
(-0.969815 0 0)
(-0.968357 0 0)
(-0.96687 0 0)
(-0.965355 0 0)
(-0.963812 0 0)
(-0.962241 0 0)
(-0.960644 0 0)
(-0.95902 0 0)
(-0.95737 0 0)
(-0.955694 0 0)
(-0.953993 0 0)
(-0.952268 0 0)
(-0.950518 0 0)
(-0.948745 0 0)
(-0.946948 0 0)
(-0.945127 0 0)
(-0.943284 0 0)
(-0.941418 0 0)
(-0.939531 0 0)
(-0.937621 0 0)
(-0.93569 0 0)
(-0.933738 0 0)
(-0.931765 0 0)
(-0.929772 0 0)
(-0.927759 0 0)
(-0.925725 0 0)
(-0.923672 0 0)
(-0.9216 0 0)
(-0.919509 0 0)
(-0.917399 0 0)
(-0.91527 0 0)
(-0.913123 0 0)
(-0.910959 0 0)
(-0.908776 0 0)
(-0.906576 0 0)
(-0.904359 0 0)
(-0.902125 0 0)
(-0.899874 0 0)
(-0.897606 0 0)
(-0.895323 0 0)
(-0.893023 0 0)
(-0.890707 0 0)
(-0.888376 0 0)
(-0.886029 0 0)
(-0.883666 0 0)
(-0.881289 0 0)
(-0.878897 0 0)
(-0.87649 0 0)
(-0.874068 0 0)
(-0.871633 0 0)
(-0.869183 0 0)
(-0.866719 0 0)
(-0.864241 0 0)
(-0.86175 0 0)
(-0.859245 0 0)
(-0.856727 0 0)
(-0.854196 0 0)
(-0.851652 0 0)
(-0.849095 0 0)
(-0.846525 0 0)
(-0.843943 0 0)
(-0.841349 0 0)
(-0.838742 0 0)
(-0.836123 0 0)
(-0.833493 0 0)
(-0.83085 0 0)
(-0.828196 0 0)
(-0.82553 0 0)
(-0.822853 0 0)
(-0.820165 0 0)
(-0.817465 0 0)
(-0.814755 0 0)
(-0.812033 0 0)
(-0.809301 0 0)
(-0.806559 0 0)
(-0.803805 0 0)
(-0.801042 0 0)
(-0.798268 0 0)
(-0.795484 0 0)
(-0.792689 0 0)
(-0.789885 0 0)
(-0.787071 0 0)
(-0.784248 0 0)
(-0.781414 0 0)
(-0.778571 0 0)
(-0.775719 0 0)
(-0.772858 0 0)
(-0.769987 0 0)
(-0.767107 0 0)
(-0.764218 0 0)
(-0.76132 0 0)
(-0.758413 0 0)
(-0.755498 0 0)
(-0.752574 0 0)
(-0.749641 0 0)
(-0.7467 0 0)
(-0.74375 0 0)
(-0.740792 0 0)
(-0.737826 0 0)
(-0.734852 0 0)
(-0.73187 0 0)
(-0.72888 0 0)
(-0.725882 0 0)
(-0.722876 0 0)
(-0.719863 0 0)
(-0.716841 0 0)
(-0.713813 0 0)
(-0.710777 0 0)
(-0.707733 0 0)
(-0.704682 0 0)
(-0.701624 0 0)
(-0.698558 0 0)
(-0.695486 0 0)
(-0.692406 0 0)
(-0.68932 0 0)
(-0.686227 0 0)
(-0.683126 0 0)
(-0.680019 0 0)
(-0.676906 0 0)
(-0.673785 0 0)
(-0.670659 0 0)
(-0.667525 0 0)
(-0.664385 0 0)
(-0.661239 0 0)
(-0.658087 0 0)
(-0.654928 0 0)
(-0.651763 0 0)
(-0.648592 0 0)
(-0.645415 0 0)
(-0.642232 0 0)
(-0.639043 0 0)
(-0.635848 0 0)
(-0.632648 0 0)
(-0.629441 0 0)
(-0.626229 0 0)
(-0.623011 0 0)
(-0.619788 0 0)
(-0.616559 0 0)
(-0.613324 0 0)
(-0.610084 0 0)
(-0.606839 0 0)
(-0.603588 0 0)
(-0.600332 0 0)
(-0.597071 0 0)
(-0.593805 0 0)
(-0.590533 0 0)
(-0.587257 0 0)
(-0.583975 0 0)
(-0.580689 0 0)
(-0.577397 0 0)
(-0.574101 0 0)
(-0.5708 0 0)
(-0.567494 0 0)
(-0.564183 0 0)
(-0.560868 0 0)
(-0.557548 0 0)
(-0.554223 0 0)
(-0.550894 0 0)
(-0.54756 0 0)
(-0.544222 0 0)
(-0.540879 0 0)
(-0.537532 0 0)
(-0.534181 0 0)
(-0.530825 0 0)
(-0.527466 0 0)
(-0.524102 0 0)
(-0.520733 0 0)
(-0.517361 0 0)
(-0.513985 0 0)
(-0.510604 0 0)
(-0.50722 0 0)
(-0.503831 0 0)
(-0.500439 0 0)
(-0.497043 0 0)
(-0.493643 0 0)
(-0.490239 0 0)
(-0.486831 0 0)
(-0.48342 0 0)
(-0.480005 0 0)
(-0.476586 0 0)
(-0.473164 0 0)
(-0.469738 0 0)
(-0.466309 0 0)
(-0.462876 0 0)
(-0.459439 0 0)
(-0.456 0 0)
(-0.452556 0 0)
(-0.44911 0 0)
(-0.44566 0 0)
(-0.442207 0 0)
(-0.43875 0 0)
(-0.435291 0 0)
(-0.431828 0 0)
(-0.428362 0 0)
(-0.424893 0 0)
(-0.421421 0 0)
(-0.417946 0 0)
(-0.414468 0 0)
(-0.410986 0 0)
(-0.407502 0 0)
(-0.404015 0 0)
(-0.400525 0 0)
(-0.397033 0 0)
(-0.393537 0 0)
(-0.390039 0 0)
(-0.386537 0 0)
(-0.383034 0 0)
(-0.379527 0 0)
(-0.376018 0 0)
(-0.372506 0 0)
(-0.368992 0 0)
(-0.365475 0 0)
(-0.361955 0 0)
(-0.358433 0 0)
(-0.354909 0 0)
(-0.351382 0 0)
(-0.347852 0 0)
(-0.34432 0 0)
(-0.340786 0 0)
(-0.33725 0 0)
(-0.333711 0 0)
(-0.33017 0 0)
(-0.326627 0 0)
(-0.323081 0 0)
(-0.319533 0 0)
(-0.315984 0 0)
(-0.312432 0 0)
(-0.308878 0 0)
(-0.305321 0 0)
(-0.301763 0 0)
(-0.298203 0 0)
(-0.294641 0 0)
(-0.291077 0 0)
(-0.28751 0 0)
(-0.283942 0 0)
(-0.280372 0 0)
(-0.276801 0 0)
(-0.273227 0 0)
(-0.269652 0 0)
(-0.266074 0 0)
(-0.262496 0 0)
(-0.258915 0 0)
(-0.255333 0 0)
(-0.251748 0 0)
(-0.248163 0 0)
(-0.244576 0 0)
(-0.240987 0 0)
(-0.237396 0 0)
(-0.233804 0 0)
(-0.230211 0 0)
(-0.226616 0 0)
(-0.223019 0 0)
(-0.219421 0 0)
(-0.215822 0 0)
(-0.212221 0 0)
(-0.208619 0 0)
(-0.205016 0 0)
(-0.201411 0 0)
(-0.197805 0 0)
(-0.194198 0 0)
(-0.190589 0 0)
(-0.186979 0 0)
(-0.183368 0 0)
(-0.179756 0 0)
(-0.176143 0 0)
(-0.172528 0 0)
(-0.168913 0 0)
(-0.165296 0 0)
(-0.161679 0 0)
(-0.15806 0 0)
(-0.15444 0 0)
(-0.15082 0 0)
(-0.147198 0 0)
(-0.143576 0 0)
(-0.139952 0 0)
(-0.136328 0 0)
(-0.132703 0 0)
(-0.129077 0 0)
(-0.12545 0 0)
(-0.121822 0 0)
(-0.118194 0 0)
(-0.114565 0 0)
(-0.110935 0 0)
(-0.107305 0 0)
(-0.103673 0 0)
(-0.100042 0 0)
(-0.0964092 0 0)
(-0.0927761 0 0)
(-0.0891425 0 0)
(-0.0855083 0 0)
(-0.0818735 0 0)
(-0.0782383 0 0)
(-0.0746025 0 0)
(-0.0709663 0 0)
(-0.0673297 0 0)
(-0.0636926 0 0)
(-0.0600552 0 0)
(-0.0564173 0 0)
(-0.0527791 0 0)
(-0.0491406 0 0)
(-0.0455018 0 0)
(-0.0418627 0 0)
(-0.0382233 0 0)
(-0.0345837 0 0)
(-0.0309439 0 0)
(-0.0273039 0 0)
(-0.0236637 0 0)
(-0.0200234 0 0)
(-0.016383 0 0)
(-0.0127424 0 0)
(-0.00910178 0 0)
(-0.00546109 0 0)
(-0.00182037 0 0)
)
;

boundaryField
{
    left
    {
        type            fixedValue;
        value           uniform (0 0 0);
    }
    right
    {
        type            fixedValue;
        value           uniform (0 0 0);
    }
    frontBackUpDown
    {
        type            empty;
    }
}


// ************************************************************************* //
