/*--------------------------------*- C++ -*----------------------------------*\
| =========                 |                                                 |
| \\      /  F ield         | OpenFOAM: The Open Source CFD Toolbox           |
|  \\    /   O peration     | Version:  2412                                  |
|   \\  /    A nd           | Website:  www.openfoam.com                      |
|    \\/     M anipulation  |                                                 |
\*---------------------------------------------------------------------------*/
FoamFile
{
    version     2.0;
    format      ascii;
    arch        "LSB;label=32;scalar=64";
    class       volVectorField;
    location    "0.16";
    object      U;
}
// * * * * * * * * * * * * * * * * * * * * * * * * * * * * * * * * * * * * * //

dimensions      [0 1 -1 0 0 0 0];

internalField   nonuniform List<vector> 
800
(
(0.0026129 0 0)
(0.00783875 0 0)
(0.0130645 0 0)
(0.0182899 0 0)
(0.0235151 0 0)
(0.0287398 0 0)
(0.033964 0 0)
(0.0391876 0 0)
(0.0444104 0 0)
(0.0496325 0 0)
(0.0548536 0 0)
(0.0600737 0 0)
(0.0652928 0 0)
(0.0705106 0 0)
(0.0757272 0 0)
(0.0809423 0 0)
(0.086156 0 0)
(0.0913681 0 0)
(0.0965785 0 0)
(0.101787 0 0)
(0.106994 0 0)
(0.112199 0 0)
(0.117402 0 0)
(0.122602 0 0)
(0.1278 0 0)
(0.132996 0 0)
(0.13819 0 0)
(0.143381 0 0)
(0.148569 0 0)
(0.153755 0 0)
(0.158938 0 0)
(0.164118 0 0)
(0.169294 0 0)
(0.174468 0 0)
(0.179639 0 0)
(0.184806 0 0)
(0.189969 0 0)
(0.195129 0 0)
(0.200286 0 0)
(0.205439 0 0)
(0.210588 0 0)
(0.215733 0 0)
(0.220874 0 0)
(0.226011 0 0)
(0.231143 0 0)
(0.236272 0 0)
(0.241395 0 0)
(0.246515 0 0)
(0.251629 0 0)
(0.256739 0 0)
(0.261844 0 0)
(0.266945 0 0)
(0.27204 0 0)
(0.27713 0 0)
(0.282214 0 0)
(0.287294 0 0)
(0.292367 0 0)
(0.297436 0 0)
(0.302498 0 0)
(0.307555 0 0)
(0.312606 0 0)
(0.317651 0 0)
(0.32269 0 0)
(0.327722 0 0)
(0.332748 0 0)
(0.337768 0 0)
(0.342782 0 0)
(0.347788 0 0)
(0.352788 0 0)
(0.357781 0 0)
(0.362767 0 0)
(0.367746 0 0)
(0.372718 0 0)
(0.377682 0 0)
(0.382639 0 0)
(0.387589 0 0)
(0.39253 0 0)
(0.397464 0 0)
(0.402391 0 0)
(0.407309 0 0)
(0.412219 0 0)
(0.417121 0 0)
(0.422014 0 0)
(0.426899 0 0)
(0.431775 0 0)
(0.436643 0 0)
(0.441502 0 0)
(0.446352 0 0)
(0.451193 0 0)
(0.456025 0 0)
(0.460847 0 0)
(0.46566 0 0)
(0.470463 0 0)
(0.475257 0 0)
(0.480041 0 0)
(0.484815 0 0)
(0.489579 0 0)
(0.494333 0 0)
(0.499076 0 0)
(0.503809 0 0)
(0.508531 0 0)
(0.513243 0 0)
(0.517944 0 0)
(0.522634 0 0)
(0.527313 0 0)
(0.531981 0 0)
(0.536637 0 0)
(0.541282 0 0)
(0.545915 0 0)
(0.550536 0 0)
(0.555146 0 0)
(0.559743 0 0)
(0.564329 0 0)
(0.568902 0 0)
(0.573462 0 0)
(0.57801 0 0)
(0.582545 0 0)
(0.587067 0 0)
(0.591577 0 0)
(0.596073 0 0)
(0.600555 0 0)
(0.605024 0 0)
(0.60948 0 0)
(0.613922 0 0)
(0.61835 0 0)
(0.622763 0 0)
(0.627163 0 0)
(0.631548 0 0)
(0.635919 0 0)
(0.640275 0 0)
(0.644616 0 0)
(0.648942 0 0)
(0.653252 0 0)
(0.657548 0 0)
(0.661828 0 0)
(0.666092 0 0)
(0.67034 0 0)
(0.674573 0 0)
(0.678789 0 0)
(0.682989 0 0)
(0.687172 0 0)
(0.691339 0 0)
(0.695488 0 0)
(0.699621 0 0)
(0.703736 0 0)
(0.707834 0 0)
(0.711915 0 0)
(0.715977 0 0)
(0.720022 0 0)
(0.724049 0 0)
(0.728057 0 0)
(0.732047 0 0)
(0.736017 0 0)
(0.73997 0 0)
(0.743902 0 0)
(0.747816 0 0)
(0.75171 0 0)
(0.755585 0 0)
(0.759439 0 0)
(0.763274 0 0)
(0.767088 0 0)
(0.770882 0 0)
(0.774655 0 0)
(0.778406 0 0)
(0.782137 0 0)
(0.785847 0 0)
(0.789535 0 0)
(0.793201 0 0)
(0.796845 0 0)
(0.800467 0 0)
(0.804066 0 0)
(0.807643 0 0)
(0.811196 0 0)
(0.814727 0 0)
(0.818234 0 0)
(0.821718 0 0)
(0.825177 0 0)
(0.828613 0 0)
(0.832024 0 0)
(0.83541 0 0)
(0.838772 0 0)
(0.842108 0 0)
(0.84542 0 0)
(0.848705 0 0)
(0.851965 0 0)
(0.855198 0 0)
(0.858405 0 0)
(0.861586 0 0)
(0.864739 0 0)
(0.867865 0 0)
(0.870964 0 0)
(0.874034 0 0)
(0.877077 0 0)
(0.880091 0 0)
(0.883077 0 0)
(0.886034 0 0)
(0.888961 0 0)
(0.891859 0 0)
(0.894727 0 0)
(0.897564 0 0)
(0.900372 0 0)
(0.903148 0 0)
(0.905893 0 0)
(0.908607 0 0)
(0.911289 0 0)
(0.913939 0 0)
(0.916557 0 0)
(0.919142 0 0)
(0.921693 0 0)
(0.924211 0 0)
(0.926695 0 0)
(0.929146 0 0)
(0.931561 0 0)
(0.933942 0 0)
(0.936287 0 0)
(0.938597 0 0)
(0.94087 0 0)
(0.943107 0 0)
(0.945308 0 0)
(0.947471 0 0)
(0.949597 0 0)
(0.951684 0 0)
(0.953733 0 0)
(0.955744 0 0)
(0.957715 0 0)
(0.959646 0 0)
(0.961538 0 0)
(0.963388 0 0)
(0.965198 0 0)
(0.966967 0 0)
(0.968693 0 0)
(0.970377 0 0)
(0.972019 0 0)
(0.973617 0 0)
(0.975171 0 0)
(0.976681 0 0)
(0.978147 0 0)
(0.979567 0 0)
(0.980941 0 0)
(0.98227 0 0)
(0.983551 0 0)
(0.984785 0 0)
(0.985972 0 0)
(0.98711 0 0)
(0.988199 0 0)
(0.989238 0 0)
(0.990228 0 0)
(0.991167 0 0)
(0.992055 0 0)
(0.992891 0 0)
(0.993675 0 0)
(0.994406 0 0)
(0.995083 0 0)
(0.995706 0 0)
(0.996275 0 0)
(0.996788 0 0)
(0.997245 0 0)
(0.997645 0 0)
(0.997987 0 0)
(0.998272 0 0)
(0.998497 0 0)
(0.998664 0 0)
(0.99877 0 0)
(0.998815 0 0)
(0.998799 0 0)
(0.99872 0 0)
(0.998578 0 0)
(0.998372 0 0)
(0.998102 0 0)
(0.997766 0 0)
(0.997364 0 0)
(0.996895 0 0)
(0.996358 0 0)
(0.995753 0 0)
(0.995078 0 0)
(0.994332 0 0)
(0.993516 0 0)
(0.992627 0 0)
(0.991665 0 0)
(0.99063 0 0)
(0.989519 0 0)
(0.988333 0 0)
(0.98707 0 0)
(0.98573 0 0)
(0.984311 0 0)
(0.982812 0 0)
(0.981233 0 0)
(0.979572 0 0)
(0.977829 0 0)
(0.976002 0 0)
(0.97409 0 0)
(0.972092 0 0)
(0.970007 0 0)
(0.967835 0 0)
(0.965573 0 0)
(0.963221 0 0)
(0.960778 0 0)
(0.958241 0 0)
(0.955612 0 0)
(0.952887 0 0)
(0.950066 0 0)
(0.947148 0 0)
(0.944131 0 0)
(0.941014 0 0)
(0.937796 0 0)
(0.934475 0 0)
(0.931051 0 0)
(0.927521 0 0)
(0.923885 0 0)
(0.920141 0 0)
(0.916288 0 0)
(0.912325 0 0)
(0.908249 0 0)
(0.90406 0 0)
(0.899757 0 0)
(0.895337 0 0)
(0.890799 0 0)
(0.886142 0 0)
(0.881365 0 0)
(0.876465 0 0)
(0.871442 0 0)
(0.866293 0 0)
(0.861018 0 0)
(0.855615 0 0)
(0.850082 0 0)
(0.844417 0 0)
(0.83862 0 0)
(0.832689 0 0)
(0.826621 0 0)
(0.820416 0 0)
(0.814072 0 0)
(0.807588 0 0)
(0.800961 0 0)
(0.794191 0 0)
(0.787275 0 0)
(0.780213 0 0)
(0.773003 0 0)
(0.765643 0 0)
(0.758132 0 0)
(0.750468 0 0)
(0.74265 0 0)
(0.734677 0 0)
(0.726547 0 0)
(0.718258 0 0)
(0.709811 0 0)
(0.701203 0 0)
(0.692433 0 0)
(0.6835 0 0)
(0.674404 0 0)
(0.665142 0 0)
(0.655714 0 0)
(0.64612 0 0)
(0.636357 0 0)
(0.626427 0 0)
(0.616328 0 0)
(0.606059 0 0)
(0.59562 0 0)
(0.585011 0 0)
(0.574232 0 0)
(0.563283 0 0)
(0.552163 0 0)
(0.540874 0 0)
(0.529415 0 0)
(0.517786 0 0)
(0.50599 0 0)
(0.494025 0 0)
(0.481895 0 0)
(0.469599 0 0)
(0.457139 0 0)
(0.444517 0 0)
(0.431735 0 0)
(0.418794 0 0)
(0.405698 0 0)
(0.392447 0 0)
(0.379047 0 0)
(0.365498 0 0)
(0.351805 0 0)
(0.33797 0 0)
(0.323998 0 0)
(0.309892 0 0)
(0.295657 0 0)
(0.281297 0 0)
(0.266817 0 0)
(0.252221 0 0)
(0.237515 0 0)
(0.222704 0 0)
(0.207794 0 0)
(0.19279 0 0)
(0.177698 0 0)
(0.162525 0 0)
(0.147278 0 0)
(0.131961 0 0)
(0.116584 0 0)
(0.101151 0 0)
(0.0856708 0 0)
(0.07015 0 0)
(0.0545959 0 0)
(0.0390157 0 0)
(0.0234169 0 0)
(0.00780691 0 0)
(-0.00780682 0 0)
(-0.0234168 0 0)
(-0.0390156 0 0)
(-0.0545957 0 0)
(-0.0701498 0 0)
(-0.0856706 0 0)
(-0.101151 0 0)
(-0.116583 0 0)
(-0.131961 0 0)
(-0.147277 0 0)
(-0.162525 0 0)
(-0.177697 0 0)
(-0.192789 0 0)
(-0.207793 0 0)
(-0.222703 0 0)
(-0.237514 0 0)
(-0.25222 0 0)
(-0.266816 0 0)
(-0.281296 0 0)
(-0.295656 0 0)
(-0.30989 0 0)
(-0.323996 0 0)
(-0.337968 0 0)
(-0.351802 0 0)
(-0.365495 0 0)
(-0.379044 0 0)
(-0.392445 0 0)
(-0.405695 0 0)
(-0.418791 0 0)
(-0.431731 0 0)
(-0.444514 0 0)
(-0.457135 0 0)
(-0.469595 0 0)
(-0.481891 0 0)
(-0.494022 0 0)
(-0.505986 0 0)
(-0.517782 0 0)
(-0.529411 0 0)
(-0.54087 0 0)
(-0.552159 0 0)
(-0.563279 0 0)
(-0.574228 0 0)
(-0.585007 0 0)
(-0.595616 0 0)
(-0.606055 0 0)
(-0.616323 0 0)
(-0.626423 0 0)
(-0.636353 0 0)
(-0.646115 0 0)
(-0.65571 0 0)
(-0.665138 0 0)
(-0.674399 0 0)
(-0.683496 0 0)
(-0.692429 0 0)
(-0.701199 0 0)
(-0.709807 0 0)
(-0.718254 0 0)
(-0.726543 0 0)
(-0.734673 0 0)
(-0.742646 0 0)
(-0.750464 0 0)
(-0.758128 0 0)
(-0.765639 0 0)
(-0.772999 0 0)
(-0.78021 0 0)
(-0.787272 0 0)
(-0.794187 0 0)
(-0.800958 0 0)
(-0.807585 0 0)
(-0.814069 0 0)
(-0.820413 0 0)
(-0.826618 0 0)
(-0.832686 0 0)
(-0.838617 0 0)
(-0.844415 0 0)
(-0.850079 0 0)
(-0.855612 0 0)
(-0.861016 0 0)
(-0.866291 0 0)
(-0.871439 0 0)
(-0.876463 0 0)
(-0.881362 0 0)
(-0.88614 0 0)
(-0.890797 0 0)
(-0.895335 0 0)
(-0.899755 0 0)
(-0.904058 0 0)
(-0.908247 0 0)
(-0.912323 0 0)
(-0.916287 0 0)
(-0.92014 0 0)
(-0.923884 0 0)
(-0.92752 0 0)
(-0.931049 0 0)
(-0.934474 0 0)
(-0.937794 0 0)
(-0.941013 0 0)
(-0.94413 0 0)
(-0.947147 0 0)
(-0.950065 0 0)
(-0.952886 0 0)
(-0.955611 0 0)
(-0.958241 0 0)
(-0.960777 0 0)
(-0.96322 0 0)
(-0.965572 0 0)
(-0.967834 0 0)
(-0.970007 0 0)
(-0.972092 0 0)
(-0.974089 0 0)
(-0.976001 0 0)
(-0.977828 0 0)
(-0.979572 0 0)
(-0.981233 0 0)
(-0.982812 0 0)
(-0.984311 0 0)
(-0.98573 0 0)
(-0.98707 0 0)
(-0.988333 0 0)
(-0.989519 0 0)
(-0.99063 0 0)
(-0.991665 0 0)
(-0.992627 0 0)
(-0.993515 0 0)
(-0.994332 0 0)
(-0.995077 0 0)
(-0.995753 0 0)
(-0.996358 0 0)
(-0.996895 0 0)
(-0.997364 0 0)
(-0.997766 0 0)
(-0.998102 0 0)
(-0.998372 0 0)
(-0.998578 0 0)
(-0.99872 0 0)
(-0.998799 0 0)
(-0.998815 0 0)
(-0.99877 0 0)
(-0.998664 0 0)
(-0.998497 0 0)
(-0.998272 0 0)
(-0.997987 0 0)
(-0.997645 0 0)
(-0.997244 0 0)
(-0.996788 0 0)
(-0.996275 0 0)
(-0.995706 0 0)
(-0.995083 0 0)
(-0.994406 0 0)
(-0.993675 0 0)
(-0.992891 0 0)
(-0.992055 0 0)
(-0.991167 0 0)
(-0.990228 0 0)
(-0.989238 0 0)
(-0.988199 0 0)
(-0.987109 0 0)
(-0.985971 0 0)
(-0.984785 0 0)
(-0.983551 0 0)
(-0.982269 0 0)
(-0.980941 0 0)
(-0.979567 0 0)
(-0.978146 0 0)
(-0.976681 0 0)
(-0.975171 0 0)
(-0.973616 0 0)
(-0.972018 0 0)
(-0.970377 0 0)
(-0.968693 0 0)
(-0.966966 0 0)
(-0.965198 0 0)
(-0.963388 0 0)
(-0.961537 0 0)
(-0.959646 0 0)
(-0.957714 0 0)
(-0.955743 0 0)
(-0.953733 0 0)
(-0.951684 0 0)
(-0.949596 0 0)
(-0.94747 0 0)
(-0.945307 0 0)
(-0.943107 0 0)
(-0.94087 0 0)
(-0.938596 0 0)
(-0.936286 0 0)
(-0.933941 0 0)
(-0.93156 0 0)
(-0.929145 0 0)
(-0.926695 0 0)
(-0.92421 0 0)
(-0.921692 0 0)
(-0.919141 0 0)
(-0.916556 0 0)
(-0.913938 0 0)
(-0.911288 0 0)
(-0.908606 0 0)
(-0.905892 0 0)
(-0.903147 0 0)
(-0.900371 0 0)
(-0.897563 0 0)
(-0.894726 0 0)
(-0.891858 0 0)
(-0.88896 0 0)
(-0.886032 0 0)
(-0.883076 0 0)
(-0.88009 0 0)
(-0.877076 0 0)
(-0.874033 0 0)
(-0.870962 0 0)
(-0.867864 0 0)
(-0.864738 0 0)
(-0.861584 0 0)
(-0.858404 0 0)
(-0.855197 0 0)
(-0.851963 0 0)
(-0.848704 0 0)
(-0.845418 0 0)
(-0.842107 0 0)
(-0.838771 0 0)
(-0.835409 0 0)
(-0.832022 0 0)
(-0.828611 0 0)
(-0.825176 0 0)
(-0.821716 0 0)
(-0.818233 0 0)
(-0.814726 0 0)
(-0.811195 0 0)
(-0.807641 0 0)
(-0.804065 0 0)
(-0.800465 0 0)
(-0.796843 0 0)
(-0.793199 0 0)
(-0.789533 0 0)
(-0.785845 0 0)
(-0.782136 0 0)
(-0.778405 0 0)
(-0.774653 0 0)
(-0.77088 0 0)
(-0.767087 0 0)
(-0.763272 0 0)
(-0.759438 0 0)
(-0.755583 0 0)
(-0.751709 0 0)
(-0.747815 0 0)
(-0.743901 0 0)
(-0.739968 0 0)
(-0.736016 0 0)
(-0.732045 0 0)
(-0.728055 0 0)
(-0.724047 0 0)
(-0.720021 0 0)
(-0.715976 0 0)
(-0.711913 0 0)
(-0.707833 0 0)
(-0.703735 0 0)
(-0.69962 0 0)
(-0.695487 0 0)
(-0.691337 0 0)
(-0.687171 0 0)
(-0.682987 0 0)
(-0.678788 0 0)
(-0.674571 0 0)
(-0.670339 0 0)
(-0.666091 0 0)
(-0.661826 0 0)
(-0.657546 0 0)
(-0.653251 0 0)
(-0.64894 0 0)
(-0.644614 0 0)
(-0.640273 0 0)
(-0.635917 0 0)
(-0.631547 0 0)
(-0.627162 0 0)
(-0.622762 0 0)
(-0.618348 0 0)
(-0.613921 0 0)
(-0.609479 0 0)
(-0.605023 0 0)
(-0.600554 0 0)
(-0.596071 0 0)
(-0.591575 0 0)
(-0.587066 0 0)
(-0.582544 0 0)
(-0.578009 0 0)
(-0.573461 0 0)
(-0.5689 0 0)
(-0.564327 0 0)
(-0.559742 0 0)
(-0.555145 0 0)
(-0.550535 0 0)
(-0.545914 0 0)
(-0.541281 0 0)
(-0.536636 0 0)
(-0.53198 0 0)
(-0.527312 0 0)
(-0.522633 0 0)
(-0.517943 0 0)
(-0.513242 0 0)
(-0.50853 0 0)
(-0.503808 0 0)
(-0.499075 0 0)
(-0.494332 0 0)
(-0.489578 0 0)
(-0.484814 0 0)
(-0.48004 0 0)
(-0.475256 0 0)
(-0.470462 0 0)
(-0.465659 0 0)
(-0.460846 0 0)
(-0.456024 0 0)
(-0.451192 0 0)
(-0.446351 0 0)
(-0.441501 0 0)
(-0.436642 0 0)
(-0.431775 0 0)
(-0.426898 0 0)
(-0.422013 0 0)
(-0.41712 0 0)
(-0.412218 0 0)
(-0.407308 0 0)
(-0.40239 0 0)
(-0.397464 0 0)
(-0.39253 0 0)
(-0.387588 0 0)
(-0.382639 0 0)
(-0.377682 0 0)
(-0.372717 0 0)
(-0.367746 0 0)
(-0.362767 0 0)
(-0.357781 0 0)
(-0.352788 0 0)
(-0.347788 0 0)
(-0.342781 0 0)
(-0.337768 0 0)
(-0.332748 0 0)
(-0.327722 0 0)
(-0.322689 0 0)
(-0.31765 0 0)
(-0.312606 0 0)
(-0.307555 0 0)
(-0.302498 0 0)
(-0.297435 0 0)
(-0.292367 0 0)
(-0.287293 0 0)
(-0.282214 0 0)
(-0.277129 0 0)
(-0.272039 0 0)
(-0.266944 0 0)
(-0.261844 0 0)
(-0.256739 0 0)
(-0.251629 0 0)
(-0.246514 0 0)
(-0.241395 0 0)
(-0.236271 0 0)
(-0.231143 0 0)
(-0.22601 0 0)
(-0.220874 0 0)
(-0.215733 0 0)
(-0.210588 0 0)
(-0.205439 0 0)
(-0.200286 0 0)
(-0.195129 0 0)
(-0.189969 0 0)
(-0.184805 0 0)
(-0.179638 0 0)
(-0.174468 0 0)
(-0.169294 0 0)
(-0.164117 0 0)
(-0.158938 0 0)
(-0.153755 0 0)
(-0.148569 0 0)
(-0.143381 0 0)
(-0.13819 0 0)
(-0.132996 0 0)
(-0.1278 0 0)
(-0.122602 0 0)
(-0.117401 0 0)
(-0.112199 0 0)
(-0.106994 0 0)
(-0.101787 0 0)
(-0.0965785 0 0)
(-0.0913681 0 0)
(-0.086156 0 0)
(-0.0809423 0 0)
(-0.0757271 0 0)
(-0.0705106 0 0)
(-0.0652928 0 0)
(-0.0600737 0 0)
(-0.0548536 0 0)
(-0.0496325 0 0)
(-0.0444104 0 0)
(-0.0391876 0 0)
(-0.033964 0 0)
(-0.0287398 0 0)
(-0.0235151 0 0)
(-0.01829 0 0)
(-0.0130645 0 0)
(-0.00783881 0 0)
(-0.00261295 0 0)
)
;

boundaryField
{
    left
    {
        type            fixedValue;
        value           uniform (0 0 0);
    }
    right
    {
        type            fixedValue;
        value           uniform (0 0 0);
    }
    frontBackUpDown
    {
        type            empty;
    }
}


// ************************************************************************* //
