/*--------------------------------*- C++ -*----------------------------------*\
| =========                 |                                                 |
| \\      /  F ield         | OpenFOAM: The Open Source CFD Toolbox           |
|  \\    /   O peration     | Version:  2412                                  |
|   \\  /    A nd           | Website:  www.openfoam.com                      |
|    \\/     M anipulation  |                                                 |
\*---------------------------------------------------------------------------*/
FoamFile
{
    version     2.0;
    format      ascii;
    arch        "LSB;label=32;scalar=64";
    class       volVectorField;
    location    "0.16";
    object      U_0;
}
// * * * * * * * * * * * * * * * * * * * * * * * * * * * * * * * * * * * * * //

dimensions      [0 1 -1 0 0 0 0];

internalField   nonuniform List<vector> 
800
(
(0.00261563 0 0)
(0.00784695 0 0)
(0.0130781 0 0)
(0.0183091 0 0)
(0.0235397 0 0)
(0.0287699 0 0)
(0.0339995 0 0)
(0.0392285 0 0)
(0.0444568 0 0)
(0.0496843 0 0)
(0.0549109 0 0)
(0.0601365 0 0)
(0.065361 0 0)
(0.0705842 0 0)
(0.0758062 0 0)
(0.0810268 0 0)
(0.0862459 0 0)
(0.0914634 0 0)
(0.0966792 0 0)
(0.101893 0 0)
(0.107105 0 0)
(0.112316 0 0)
(0.117524 0 0)
(0.12273 0 0)
(0.127933 0 0)
(0.133135 0 0)
(0.138334 0 0)
(0.14353 0 0)
(0.148724 0 0)
(0.153915 0 0)
(0.159103 0 0)
(0.164288 0 0)
(0.16947 0 0)
(0.174649 0 0)
(0.179824 0 0)
(0.184997 0 0)
(0.190166 0 0)
(0.195331 0 0)
(0.200493 0 0)
(0.205651 0 0)
(0.210805 0 0)
(0.215955 0 0)
(0.221101 0 0)
(0.226243 0 0)
(0.231381 0 0)
(0.236514 0 0)
(0.241643 0 0)
(0.246767 0 0)
(0.251887 0 0)
(0.257002 0 0)
(0.262112 0 0)
(0.267217 0 0)
(0.272317 0 0)
(0.277412 0 0)
(0.282501 0 0)
(0.287585 0 0)
(0.292664 0 0)
(0.297737 0 0)
(0.302805 0 0)
(0.307866 0 0)
(0.312922 0 0)
(0.317971 0 0)
(0.323015 0 0)
(0.328052 0 0)
(0.333083 0 0)
(0.338107 0 0)
(0.343125 0 0)
(0.348136 0 0)
(0.353141 0 0)
(0.358138 0 0)
(0.363129 0 0)
(0.368112 0 0)
(0.373088 0 0)
(0.378057 0 0)
(0.383019 0 0)
(0.387972 0 0)
(0.392918 0 0)
(0.397857 0 0)
(0.402787 0 0)
(0.407709 0 0)
(0.412624 0 0)
(0.417529 0 0)
(0.422427 0 0)
(0.427316 0 0)
(0.432196 0 0)
(0.437068 0 0)
(0.441931 0 0)
(0.446785 0 0)
(0.45163 0 0)
(0.456465 0 0)
(0.461291 0 0)
(0.466108 0 0)
(0.470915 0 0)
(0.475713 0 0)
(0.4805 0 0)
(0.485278 0 0)
(0.490045 0 0)
(0.494802 0 0)
(0.499549 0 0)
(0.504286 0 0)
(0.509012 0 0)
(0.513727 0 0)
(0.518431 0 0)
(0.523124 0 0)
(0.527806 0 0)
(0.532477 0 0)
(0.537137 0 0)
(0.541784 0 0)
(0.546421 0 0)
(0.551045 0 0)
(0.555657 0 0)
(0.560258 0 0)
(0.564846 0 0)
(0.569422 0 0)
(0.573985 0 0)
(0.578535 0 0)
(0.583073 0 0)
(0.587598 0 0)
(0.59211 0 0)
(0.596608 0 0)
(0.601093 0 0)
(0.605565 0 0)
(0.610023 0 0)
(0.614467 0 0)
(0.618897 0 0)
(0.623313 0 0)
(0.627715 0 0)
(0.632102 0 0)
(0.636474 0 0)
(0.640832 0 0)
(0.645175 0 0)
(0.649503 0 0)
(0.653815 0 0)
(0.658112 0 0)
(0.662394 0 0)
(0.66666 0 0)
(0.670909 0 0)
(0.675143 0 0)
(0.679361 0 0)
(0.683562 0 0)
(0.687746 0 0)
(0.691914 0 0)
(0.696065 0 0)
(0.700199 0 0)
(0.704315 0 0)
(0.708414 0 0)
(0.712495 0 0)
(0.716559 0 0)
(0.720604 0 0)
(0.724631 0 0)
(0.72864 0 0)
(0.73263 0 0)
(0.736601 0 0)
(0.740554 0 0)
(0.744487 0 0)
(0.748401 0 0)
(0.752295 0 0)
(0.756169 0 0)
(0.760024 0 0)
(0.763858 0 0)
(0.767672 0 0)
(0.771466 0 0)
(0.775238 0 0)
(0.77899 0 0)
(0.78272 0 0)
(0.786429 0 0)
(0.790116 0 0)
(0.793781 0 0)
(0.797425 0 0)
(0.801046 0 0)
(0.804644 0 0)
(0.808219 0 0)
(0.811772 0 0)
(0.815301 0 0)
(0.818807 0 0)
(0.822289 0 0)
(0.825747 0 0)
(0.829181 0 0)
(0.83259 0 0)
(0.835975 0 0)
(0.839335 0 0)
(0.842669 0 0)
(0.845978 0 0)
(0.849262 0 0)
(0.852519 0 0)
(0.85575 0 0)
(0.858954 0 0)
(0.862132 0 0)
(0.865283 0 0)
(0.868406 0 0)
(0.871502 0 0)
(0.87457 0 0)
(0.877609 0 0)
(0.88062 0 0)
(0.883603 0 0)
(0.886556 0 0)
(0.88948 0 0)
(0.892374 0 0)
(0.895238 0 0)
(0.898072 0 0)
(0.900875 0 0)
(0.903648 0 0)
(0.906389 0 0)
(0.909099 0 0)
(0.911776 0 0)
(0.914422 0 0)
(0.917035 0 0)
(0.919615 0 0)
(0.922162 0 0)
(0.924675 0 0)
(0.927154 0 0)
(0.929599 0 0)
(0.932009 0 0)
(0.934384 0 0)
(0.936724 0 0)
(0.939028 0 0)
(0.941296 0 0)
(0.943527 0 0)
(0.945722 0 0)
(0.947879 0 0)
(0.949998 0 0)
(0.952079 0 0)
(0.954122 0 0)
(0.956126 0 0)
(0.95809 0 0)
(0.960014 0 0)
(0.961899 0 0)
(0.963742 0 0)
(0.965545 0 0)
(0.967306 0 0)
(0.969025 0 0)
(0.970701 0 0)
(0.972335 0 0)
(0.973925 0 0)
(0.975472 0 0)
(0.976973 0 0)
(0.978431 0 0)
(0.979842 0 0)
(0.981208 0 0)
(0.982528 0 0)
(0.9838 0 0)
(0.985025 0 0)
(0.986202 0 0)
(0.987331 0 0)
(0.988411 0 0)
(0.989441 0 0)
(0.990421 0 0)
(0.99135 0 0)
(0.992228 0 0)
(0.993054 0 0)
(0.993828 0 0)
(0.994548 0 0)
(0.995215 0 0)
(0.995827 0 0)
(0.996385 0 0)
(0.996886 0 0)
(0.997332 0 0)
(0.997721 0 0)
(0.998052 0 0)
(0.998325 0 0)
(0.998539 0 0)
(0.998693 0 0)
(0.998787 0 0)
(0.99882 0 0)
(0.998792 0 0)
(0.9987 0 0)
(0.998546 0 0)
(0.998327 0 0)
(0.998044 0 0)
(0.997695 0 0)
(0.99728 0 0)
(0.996798 0 0)
(0.996247 0 0)
(0.995628 0 0)
(0.994939 0 0)
(0.99418 0 0)
(0.993349 0 0)
(0.992447 0 0)
(0.991471 0 0)
(0.990421 0 0)
(0.989296 0 0)
(0.988095 0 0)
(0.986817 0 0)
(0.985462 0 0)
(0.984028 0 0)
(0.982514 0 0)
(0.980919 0 0)
(0.979243 0 0)
(0.977484 0 0)
(0.975641 0 0)
(0.973714 0 0)
(0.9717 0 0)
(0.969599 0 0)
(0.967411 0 0)
(0.965133 0 0)
(0.962764 0 0)
(0.960304 0 0)
(0.957752 0 0)
(0.955106 0 0)
(0.952364 0 0)
(0.949527 0 0)
(0.946592 0 0)
(0.943558 0 0)
(0.940424 0 0)
(0.937189 0 0)
(0.933851 0 0)
(0.93041 0 0)
(0.926864 0 0)
(0.923211 0 0)
(0.91945 0 0)
(0.91558 0 0)
(0.911599 0 0)
(0.907507 0 0)
(0.903301 0 0)
(0.89898 0 0)
(0.894543 0 0)
(0.889989 0 0)
(0.885315 0 0)
(0.880521 0 0)
(0.875605 0 0)
(0.870565 0 0)
(0.8654 0 0)
(0.860109 0 0)
(0.85469 0 0)
(0.849141 0 0)
(0.843461 0 0)
(0.837648 0 0)
(0.831701 0 0)
(0.825619 0 0)
(0.819399 0 0)
(0.813041 0 0)
(0.806542 0 0)
(0.799901 0 0)
(0.793117 0 0)
(0.786189 0 0)
(0.779114 0 0)
(0.771891 0 0)
(0.764519 0 0)
(0.756996 0 0)
(0.749321 0 0)
(0.741492 0 0)
(0.733509 0 0)
(0.72537 0 0)
(0.717073 0 0)
(0.708617 0 0)
(0.700001 0 0)
(0.691224 0 0)
(0.682285 0 0)
(0.673183 0 0)
(0.663917 0 0)
(0.654485 0 0)
(0.644887 0 0)
(0.635123 0 0)
(0.625191 0 0)
(0.615091 0 0)
(0.604823 0 0)
(0.594386 0 0)
(0.58378 0 0)
(0.573005 0 0)
(0.56206 0 0)
(0.550946 0 0)
(0.539664 0 0)
(0.528213 0 0)
(0.516594 0 0)
(0.504808 0 0)
(0.492855 0 0)
(0.480738 0 0)
(0.468456 0 0)
(0.456013 0 0)
(0.443408 0 0)
(0.430644 0 0)
(0.417724 0 0)
(0.404648 0 0)
(0.391421 0 0)
(0.378044 0 0)
(0.364521 0 0)
(0.350855 0 0)
(0.337048 0 0)
(0.323106 0 0)
(0.309031 0 0)
(0.294829 0 0)
(0.280502 0 0)
(0.266057 0 0)
(0.251497 0 0)
(0.236828 0 0)
(0.222056 0 0)
(0.207185 0 0)
(0.192221 0 0)
(0.177171 0 0)
(0.162041 0 0)
(0.146837 0 0)
(0.131565 0 0)
(0.116232 0 0)
(0.100845 0 0)
(0.0854108 0 0)
(0.0699366 0 0)
(0.0544295 0 0)
(0.0388966 0 0)
(0.0233454 0 0)
(0.00778305 0 0)
(-0.00778296 0 0)
(-0.0233453 0 0)
(-0.0388965 0 0)
(-0.0544293 0 0)
(-0.0699365 0 0)
(-0.0854106 0 0)
(-0.100845 0 0)
(-0.116232 0 0)
(-0.131564 0 0)
(-0.146836 0 0)
(-0.16204 0 0)
(-0.177171 0 0)
(-0.192221 0 0)
(-0.207184 0 0)
(-0.222055 0 0)
(-0.236827 0 0)
(-0.251496 0 0)
(-0.266055 0 0)
(-0.280501 0 0)
(-0.294827 0 0)
(-0.309029 0 0)
(-0.323104 0 0)
(-0.337046 0 0)
(-0.350852 0 0)
(-0.364518 0 0)
(-0.378042 0 0)
(-0.391418 0 0)
(-0.404645 0 0)
(-0.41772 0 0)
(-0.430641 0 0)
(-0.443405 0 0)
(-0.456009 0 0)
(-0.468453 0 0)
(-0.480734 0 0)
(-0.492852 0 0)
(-0.504804 0 0)
(-0.51659 0 0)
(-0.528209 0 0)
(-0.53966 0 0)
(-0.550942 0 0)
(-0.562056 0 0)
(-0.573 0 0)
(-0.583776 0 0)
(-0.594382 0 0)
(-0.604819 0 0)
(-0.615087 0 0)
(-0.625187 0 0)
(-0.635119 0 0)
(-0.644883 0 0)
(-0.654481 0 0)
(-0.663912 0 0)
(-0.673179 0 0)
(-0.682281 0 0)
(-0.69122 0 0)
(-0.699997 0 0)
(-0.708613 0 0)
(-0.717069 0 0)
(-0.725366 0 0)
(-0.733505 0 0)
(-0.741489 0 0)
(-0.749317 0 0)
(-0.756992 0 0)
(-0.764515 0 0)
(-0.771887 0 0)
(-0.77911 0 0)
(-0.786185 0 0)
(-0.793114 0 0)
(-0.799898 0 0)
(-0.806539 0 0)
(-0.813037 0 0)
(-0.819396 0 0)
(-0.825616 0 0)
(-0.831698 0 0)
(-0.837645 0 0)
(-0.843458 0 0)
(-0.849138 0 0)
(-0.854687 0 0)
(-0.860106 0 0)
(-0.865398 0 0)
(-0.870563 0 0)
(-0.875602 0 0)
(-0.880519 0 0)
(-0.885313 0 0)
(-0.889987 0 0)
(-0.894541 0 0)
(-0.898978 0 0)
(-0.903299 0 0)
(-0.907505 0 0)
(-0.911597 0 0)
(-0.915578 0 0)
(-0.919448 0 0)
(-0.923209 0 0)
(-0.926862 0 0)
(-0.930409 0 0)
(-0.93385 0 0)
(-0.937188 0 0)
(-0.940423 0 0)
(-0.943557 0 0)
(-0.94659 0 0)
(-0.949526 0 0)
(-0.952363 0 0)
(-0.955105 0 0)
(-0.957751 0 0)
(-0.960304 0 0)
(-0.962764 0 0)
(-0.965132 0 0)
(-0.96741 0 0)
(-0.969599 0 0)
(-0.971699 0 0)
(-0.973713 0 0)
(-0.975641 0 0)
(-0.977484 0 0)
(-0.979243 0 0)
(-0.980919 0 0)
(-0.982514 0 0)
(-0.984028 0 0)
(-0.985462 0 0)
(-0.986817 0 0)
(-0.988095 0 0)
(-0.989296 0 0)
(-0.99042 0 0)
(-0.991471 0 0)
(-0.992446 0 0)
(-0.993349 0 0)
(-0.99418 0 0)
(-0.994939 0 0)
(-0.995628 0 0)
(-0.996247 0 0)
(-0.996798 0 0)
(-0.99728 0 0)
(-0.997695 0 0)
(-0.998044 0 0)
(-0.998327 0 0)
(-0.998546 0 0)
(-0.9987 0 0)
(-0.998792 0 0)
(-0.99882 0 0)
(-0.998787 0 0)
(-0.998693 0 0)
(-0.998539 0 0)
(-0.998325 0 0)
(-0.998052 0 0)
(-0.997721 0 0)
(-0.997332 0 0)
(-0.996886 0 0)
(-0.996385 0 0)
(-0.995827 0 0)
(-0.995215 0 0)
(-0.994548 0 0)
(-0.993827 0 0)
(-0.993054 0 0)
(-0.992228 0 0)
(-0.99135 0 0)
(-0.990421 0 0)
(-0.989441 0 0)
(-0.988411 0 0)
(-0.987331 0 0)
(-0.986202 0 0)
(-0.985025 0 0)
(-0.9838 0 0)
(-0.982527 0 0)
(-0.981208 0 0)
(-0.979842 0 0)
(-0.97843 0 0)
(-0.976973 0 0)
(-0.975471 0 0)
(-0.973925 0 0)
(-0.972335 0 0)
(-0.970701 0 0)
(-0.969025 0 0)
(-0.967306 0 0)
(-0.965544 0 0)
(-0.963742 0 0)
(-0.961898 0 0)
(-0.960014 0 0)
(-0.958089 0 0)
(-0.956125 0 0)
(-0.954121 0 0)
(-0.952079 0 0)
(-0.949997 0 0)
(-0.947878 0 0)
(-0.945721 0 0)
(-0.943527 0 0)
(-0.941295 0 0)
(-0.939027 0 0)
(-0.936723 0 0)
(-0.934383 0 0)
(-0.932008 0 0)
(-0.929598 0 0)
(-0.927153 0 0)
(-0.924674 0 0)
(-0.922161 0 0)
(-0.919614 0 0)
(-0.917034 0 0)
(-0.914421 0 0)
(-0.911775 0 0)
(-0.909098 0 0)
(-0.906388 0 0)
(-0.903647 0 0)
(-0.900874 0 0)
(-0.898071 0 0)
(-0.895237 0 0)
(-0.892373 0 0)
(-0.889479 0 0)
(-0.886555 0 0)
(-0.883602 0 0)
(-0.880619 0 0)
(-0.877608 0 0)
(-0.874568 0 0)
(-0.871501 0 0)
(-0.868405 0 0)
(-0.865282 0 0)
(-0.862131 0 0)
(-0.858953 0 0)
(-0.855749 0 0)
(-0.852518 0 0)
(-0.84926 0 0)
(-0.845977 0 0)
(-0.842668 0 0)
(-0.839333 0 0)
(-0.835974 0 0)
(-0.832589 0 0)
(-0.82918 0 0)
(-0.825746 0 0)
(-0.822288 0 0)
(-0.818806 0 0)
(-0.8153 0 0)
(-0.811771 0 0)
(-0.808218 0 0)
(-0.804642 0 0)
(-0.801044 0 0)
(-0.797423 0 0)
(-0.79378 0 0)
(-0.790115 0 0)
(-0.786428 0 0)
(-0.782719 0 0)
(-0.778988 0 0)
(-0.775237 0 0)
(-0.771464 0 0)
(-0.767671 0 0)
(-0.763857 0 0)
(-0.760023 0 0)
(-0.756168 0 0)
(-0.752294 0 0)
(-0.748399 0 0)
(-0.744486 0 0)
(-0.740552 0 0)
(-0.7366 0 0)
(-0.732629 0 0)
(-0.728638 0 0)
(-0.72463 0 0)
(-0.720603 0 0)
(-0.716557 0 0)
(-0.712494 0 0)
(-0.708413 0 0)
(-0.704314 0 0)
(-0.700197 0 0)
(-0.696064 0 0)
(-0.691913 0 0)
(-0.687745 0 0)
(-0.683561 0 0)
(-0.679359 0 0)
(-0.675142 0 0)
(-0.670908 0 0)
(-0.666658 0 0)
(-0.662392 0 0)
(-0.658111 0 0)
(-0.653814 0 0)
(-0.649501 0 0)
(-0.645174 0 0)
(-0.640831 0 0)
(-0.636473 0 0)
(-0.6321 0 0)
(-0.627713 0 0)
(-0.623312 0 0)
(-0.618896 0 0)
(-0.614466 0 0)
(-0.610022 0 0)
(-0.605564 0 0)
(-0.601092 0 0)
(-0.596607 0 0)
(-0.592109 0 0)
(-0.587597 0 0)
(-0.583072 0 0)
(-0.578534 0 0)
(-0.573984 0 0)
(-0.569421 0 0)
(-0.564845 0 0)
(-0.560257 0 0)
(-0.555656 0 0)
(-0.551044 0 0)
(-0.54642 0 0)
(-0.541783 0 0)
(-0.537135 0 0)
(-0.532476 0 0)
(-0.527805 0 0)
(-0.523123 0 0)
(-0.51843 0 0)
(-0.513726 0 0)
(-0.509011 0 0)
(-0.504285 0 0)
(-0.499548 0 0)
(-0.494801 0 0)
(-0.490044 0 0)
(-0.485277 0 0)
(-0.480499 0 0)
(-0.475712 0 0)
(-0.470914 0 0)
(-0.466107 0 0)
(-0.46129 0 0)
(-0.456464 0 0)
(-0.451629 0 0)
(-0.446784 0 0)
(-0.44193 0 0)
(-0.437067 0 0)
(-0.432196 0 0)
(-0.427315 0 0)
(-0.422426 0 0)
(-0.417529 0 0)
(-0.412623 0 0)
(-0.407709 0 0)
(-0.402786 0 0)
(-0.397856 0 0)
(-0.392918 0 0)
(-0.387972 0 0)
(-0.383018 0 0)
(-0.378057 0 0)
(-0.373088 0 0)
(-0.368112 0 0)
(-0.363128 0 0)
(-0.358138 0 0)
(-0.35314 0 0)
(-0.348136 0 0)
(-0.343125 0 0)
(-0.338107 0 0)
(-0.333083 0 0)
(-0.328052 0 0)
(-0.323014 0 0)
(-0.317971 0 0)
(-0.312921 0 0)
(-0.307866 0 0)
(-0.302804 0 0)
(-0.297737 0 0)
(-0.292664 0 0)
(-0.287585 0 0)
(-0.282501 0 0)
(-0.277411 0 0)
(-0.272317 0 0)
(-0.267217 0 0)
(-0.262112 0 0)
(-0.257001 0 0)
(-0.251887 0 0)
(-0.246767 0 0)
(-0.241643 0 0)
(-0.236514 0 0)
(-0.23138 0 0)
(-0.226243 0 0)
(-0.221101 0 0)
(-0.215955 0 0)
(-0.210804 0 0)
(-0.20565 0 0)
(-0.200492 0 0)
(-0.195331 0 0)
(-0.190165 0 0)
(-0.184997 0 0)
(-0.179824 0 0)
(-0.174649 0 0)
(-0.16947 0 0)
(-0.164288 0 0)
(-0.159102 0 0)
(-0.153914 0 0)
(-0.148724 0 0)
(-0.14353 0 0)
(-0.138334 0 0)
(-0.133135 0 0)
(-0.127933 0 0)
(-0.12273 0 0)
(-0.117524 0 0)
(-0.112316 0 0)
(-0.107105 0 0)
(-0.101893 0 0)
(-0.0966792 0 0)
(-0.0914633 0 0)
(-0.0862458 0 0)
(-0.0810268 0 0)
(-0.0758062 0 0)
(-0.0705842 0 0)
(-0.0653609 0 0)
(-0.0601365 0 0)
(-0.0549109 0 0)
(-0.0496843 0 0)
(-0.0444569 0 0)
(-0.0392286 0 0)
(-0.0339995 0 0)
(-0.0287699 0 0)
(-0.0235397 0 0)
(-0.0183091 0 0)
(-0.0130782 0 0)
(-0.00784701 0 0)
(-0.00261568 0 0)
)
;

boundaryField
{
    left
    {
        type            fixedValue;
        value           uniform (0 0 0);
    }
    right
    {
        type            fixedValue;
        value           uniform (0 0 0);
    }
    frontBackUpDown
    {
        type            empty;
    }
}


// ************************************************************************* //
