/*--------------------------------*- C++ -*----------------------------------*\
| =========                 |                                                 |
| \\      /  F ield         | OpenFOAM: The Open Source CFD Toolbox           |
|  \\    /   O peration     | Version:  2412                                  |
|   \\  /    A nd           | Website:  www.openfoam.com                      |
|    \\/     M anipulation  |                                                 |
\*---------------------------------------------------------------------------*/
FoamFile
{
    version     2.0;
    format      ascii;
    arch        "LSB;label=32;scalar=64";
    class       volVectorField;
    location    "0.16";
    object      U_0_0_0;
}
// * * * * * * * * * * * * * * * * * * * * * * * * * * * * * * * * * * * * * //

dimensions      [0 1 -1 0 0 0 0];

internalField   nonuniform List<vector> 
800
(
(0.00262112 0 0)
(0.0078634 0 0)
(0.0131055 0 0)
(0.0183474 0 0)
(0.023589 0 0)
(0.0288301 0 0)
(0.0340707 0 0)
(0.0393107 0 0)
(0.04455 0 0)
(0.0497884 0 0)
(0.0550259 0 0)
(0.0602624 0 0)
(0.0654978 0 0)
(0.0707319 0 0)
(0.0759648 0 0)
(0.0811962 0 0)
(0.0864262 0 0)
(0.0916546 0 0)
(0.0968812 0 0)
(0.102106 0 0)
(0.107329 0 0)
(0.11255 0 0)
(0.117769 0 0)
(0.122986 0 0)
(0.1282 0 0)
(0.133412 0 0)
(0.138622 0 0)
(0.143829 0 0)
(0.149033 0 0)
(0.154235 0 0)
(0.159433 0 0)
(0.164629 0 0)
(0.169822 0 0)
(0.175011 0 0)
(0.180197 0 0)
(0.18538 0 0)
(0.190559 0 0)
(0.195735 0 0)
(0.200907 0 0)
(0.206075 0 0)
(0.21124 0 0)
(0.2164 0 0)
(0.221557 0 0)
(0.226709 0 0)
(0.231857 0 0)
(0.237 0 0)
(0.242139 0 0)
(0.247274 0 0)
(0.252403 0 0)
(0.257528 0 0)
(0.262648 0 0)
(0.267763 0 0)
(0.272873 0 0)
(0.277978 0 0)
(0.283077 0 0)
(0.288171 0 0)
(0.293259 0 0)
(0.298342 0 0)
(0.303419 0 0)
(0.30849 0 0)
(0.313555 0 0)
(0.318614 0 0)
(0.323667 0 0)
(0.328714 0 0)
(0.333754 0 0)
(0.338788 0 0)
(0.343815 0 0)
(0.348835 0 0)
(0.353849 0 0)
(0.358855 0 0)
(0.363854 0 0)
(0.368847 0 0)
(0.373832 0 0)
(0.378809 0 0)
(0.383779 0 0)
(0.388742 0 0)
(0.393696 0 0)
(0.398643 0 0)
(0.403582 0 0)
(0.408513 0 0)
(0.413435 0 0)
(0.41835 0 0)
(0.423255 0 0)
(0.428152 0 0)
(0.433041 0 0)
(0.437921 0 0)
(0.442791 0 0)
(0.447653 0 0)
(0.452505 0 0)
(0.457349 0 0)
(0.462182 0 0)
(0.467007 0 0)
(0.471821 0 0)
(0.476626 0 0)
(0.481421 0 0)
(0.486206 0 0)
(0.49098 0 0)
(0.495745 0 0)
(0.500498 0 0)
(0.505242 0 0)
(0.509974 0 0)
(0.514696 0 0)
(0.519407 0 0)
(0.524107 0 0)
(0.528795 0 0)
(0.533472 0 0)
(0.538138 0 0)
(0.542792 0 0)
(0.547434 0 0)
(0.552065 0 0)
(0.556683 0 0)
(0.561289 0 0)
(0.565883 0 0)
(0.570464 0 0)
(0.575033 0 0)
(0.579589 0 0)
(0.584132 0 0)
(0.588662 0 0)
(0.593179 0 0)
(0.597682 0 0)
(0.602172 0 0)
(0.606648 0 0)
(0.611111 0 0)
(0.615559 0 0)
(0.619994 0 0)
(0.624414 0 0)
(0.62882 0 0)
(0.633211 0 0)
(0.637587 0 0)
(0.641949 0 0)
(0.646296 0 0)
(0.650627 0 0)
(0.654943 0 0)
(0.659243 0 0)
(0.663528 0 0)
(0.667797 0 0)
(0.67205 0 0)
(0.676286 0 0)
(0.680507 0 0)
(0.68471 0 0)
(0.688897 0 0)
(0.693067 0 0)
(0.69722 0 0)
(0.701356 0 0)
(0.705474 0 0)
(0.709575 0 0)
(0.713658 0 0)
(0.717723 0 0)
(0.721769 0 0)
(0.725798 0 0)
(0.729807 0 0)
(0.733798 0 0)
(0.737771 0 0)
(0.741724 0 0)
(0.745657 0 0)
(0.749571 0 0)
(0.753466 0 0)
(0.75734 0 0)
(0.761195 0 0)
(0.765029 0 0)
(0.768842 0 0)
(0.772635 0 0)
(0.776407 0 0)
(0.780157 0 0)
(0.783887 0 0)
(0.787594 0 0)
(0.79128 0 0)
(0.794944 0 0)
(0.798585 0 0)
(0.802204 0 0)
(0.8058 0 0)
(0.809373 0 0)
(0.812924 0 0)
(0.81645 0 0)
(0.819953 0 0)
(0.823432 0 0)
(0.826887 0 0)
(0.830318 0 0)
(0.833723 0 0)
(0.837104 0 0)
(0.84046 0 0)
(0.843791 0 0)
(0.847095 0 0)
(0.850374 0 0)
(0.853627 0 0)
(0.856853 0 0)
(0.860053 0 0)
(0.863225 0 0)
(0.86637 0 0)
(0.869488 0 0)
(0.872578 0 0)
(0.87564 0 0)
(0.878673 0 0)
(0.881678 0 0)
(0.884653 0 0)
(0.8876 0 0)
(0.890516 0 0)
(0.893403 0 0)
(0.89626 0 0)
(0.899086 0 0)
(0.901882 0 0)
(0.904646 0 0)
(0.907379 0 0)
(0.91008 0 0)
(0.912749 0 0)
(0.915385 0 0)
(0.917989 0 0)
(0.920559 0 0)
(0.923096 0 0)
(0.9256 0 0)
(0.928069 0 0)
(0.930503 0 0)
(0.932903 0 0)
(0.935267 0 0)
(0.937596 0 0)
(0.939888 0 0)
(0.942144 0 0)
(0.944364 0 0)
(0.946546 0 0)
(0.948691 0 0)
(0.950798 0 0)
(0.952866 0 0)
(0.954895 0 0)
(0.956886 0 0)
(0.958837 0 0)
(0.960747 0 0)
(0.962617 0 0)
(0.964447 0 0)
(0.966235 0 0)
(0.967981 0 0)
(0.969685 0 0)
(0.971346 0 0)
(0.972963 0 0)
(0.974538 0 0)
(0.976068 0 0)
(0.977553 0 0)
(0.978993 0 0)
(0.980388 0 0)
(0.981737 0 0)
(0.983038 0 0)
(0.984293 0 0)
(0.9855 0 0)
(0.986659 0 0)
(0.987769 0 0)
(0.98883 0 0)
(0.98984 0 0)
(0.990801 0 0)
(0.99171 0 0)
(0.992568 0 0)
(0.993374 0 0)
(0.994126 0 0)
(0.994826 0 0)
(0.995471 0 0)
(0.996062 0 0)
(0.996598 0 0)
(0.997077 0 0)
(0.997501 0 0)
(0.997867 0 0)
(0.998175 0 0)
(0.998424 0 0)
(0.998615 0 0)
(0.998745 0 0)
(0.998815 0 0)
(0.998824 0 0)
(0.99877 0 0)
(0.998654 0 0)
(0.998474 0 0)
(0.99823 0 0)
(0.997921 0 0)
(0.997546 0 0)
(0.997104 0 0)
(0.996595 0 0)
(0.996018 0 0)
(0.995371 0 0)
(0.994655 0 0)
(0.993868 0 0)
(0.993009 0 0)
(0.992078 0 0)
(0.991073 0 0)
(0.989994 0 0)
(0.98884 0 0)
(0.98761 0 0)
(0.986302 0 0)
(0.984917 0 0)
(0.983453 0 0)
(0.981909 0 0)
(0.980283 0 0)
(0.978576 0 0)
(0.976786 0 0)
(0.974912 0 0)
(0.972952 0 0)
(0.970907 0 0)
(0.968774 0 0)
(0.966553 0 0)
(0.964243 0 0)
(0.961842 0 0)
(0.95935 0 0)
(0.956764 0 0)
(0.954085 0 0)
(0.95131 0 0)
(0.948439 0 0)
(0.945471 0 0)
(0.942404 0 0)
(0.939236 0 0)
(0.935967 0 0)
(0.932596 0 0)
(0.929121 0 0)
(0.925541 0 0)
(0.921854 0 0)
(0.918059 0 0)
(0.914155 0 0)
(0.910141 0 0)
(0.906014 0 0)
(0.901775 0 0)
(0.89742 0 0)
(0.89295 0 0)
(0.888362 0 0)
(0.883655 0 0)
(0.878828 0 0)
(0.873879 0 0)
(0.868806 0 0)
(0.863609 0 0)
(0.858285 0 0)
(0.852834 0 0)
(0.847254 0 0)
(0.841543 0 0)
(0.835699 0 0)
(0.829722 0 0)
(0.82361 0 0)
(0.817361 0 0)
(0.810974 0 0)
(0.804447 0 0)
(0.797779 0 0)
(0.790968 0 0)
(0.784013 0 0)
(0.776913 0 0)
(0.769666 0 0)
(0.76227 0 0)
(0.754724 0 0)
(0.747028 0 0)
(0.739179 0 0)
(0.731176 0 0)
(0.723018 0 0)
(0.714703 0 0)
(0.706231 0 0)
(0.697601 0 0)
(0.688811 0 0)
(0.67986 0 0)
(0.670747 0 0)
(0.661471 0 0)
(0.652032 0 0)
(0.642429 0 0)
(0.63266 0 0)
(0.622726 0 0)
(0.612626 0 0)
(0.60236 0 0)
(0.591926 0 0)
(0.581326 0 0)
(0.570558 0 0)
(0.559623 0 0)
(0.548522 0 0)
(0.537254 0 0)
(0.52582 0 0)
(0.51422 0 0)
(0.502455 0 0)
(0.490527 0 0)
(0.478437 0 0)
(0.466184 0 0)
(0.453773 0 0)
(0.441202 0 0)
(0.428476 0 0)
(0.415596 0 0)
(0.402563 0 0)
(0.389381 0 0)
(0.376053 0 0)
(0.362581 0 0)
(0.348968 0 0)
(0.335218 0 0)
(0.321335 0 0)
(0.307322 0 0)
(0.293184 0 0)
(0.278924 0 0)
(0.264548 0 0)
(0.25006 0 0)
(0.235465 0 0)
(0.220769 0 0)
(0.205977 0 0)
(0.191094 0 0)
(0.176127 0 0)
(0.161081 0 0)
(0.145963 0 0)
(0.130778 0 0)
(0.115535 0 0)
(0.100238 0 0)
(0.0848955 0 0)
(0.0695137 0 0)
(0.0540997 0 0)
(0.0386606 0 0)
(0.0232036 0 0)
(0.00773576 0 0)
(-0.00773568 0 0)
(-0.0232035 0 0)
(-0.0386605 0 0)
(-0.0540995 0 0)
(-0.0695135 0 0)
(-0.0848952 0 0)
(-0.100238 0 0)
(-0.115534 0 0)
(-0.130778 0 0)
(-0.145962 0 0)
(-0.16108 0 0)
(-0.176126 0 0)
(-0.191093 0 0)
(-0.205976 0 0)
(-0.220768 0 0)
(-0.235464 0 0)
(-0.250059 0 0)
(-0.264546 0 0)
(-0.278922 0 0)
(-0.293182 0 0)
(-0.30732 0 0)
(-0.321333 0 0)
(-0.335216 0 0)
(-0.348965 0 0)
(-0.362578 0 0)
(-0.37605 0 0)
(-0.389378 0 0)
(-0.40256 0 0)
(-0.415593 0 0)
(-0.428473 0 0)
(-0.441199 0 0)
(-0.453769 0 0)
(-0.466181 0 0)
(-0.478433 0 0)
(-0.490524 0 0)
(-0.502452 0 0)
(-0.514216 0 0)
(-0.525816 0 0)
(-0.53725 0 0)
(-0.548518 0 0)
(-0.559619 0 0)
(-0.570554 0 0)
(-0.581322 0 0)
(-0.591922 0 0)
(-0.602356 0 0)
(-0.612622 0 0)
(-0.622722 0 0)
(-0.632656 0 0)
(-0.642425 0 0)
(-0.652028 0 0)
(-0.661467 0 0)
(-0.670743 0 0)
(-0.679855 0 0)
(-0.688807 0 0)
(-0.697597 0 0)
(-0.706227 0 0)
(-0.714699 0 0)
(-0.723014 0 0)
(-0.731172 0 0)
(-0.739175 0 0)
(-0.747024 0 0)
(-0.754721 0 0)
(-0.762266 0 0)
(-0.769662 0 0)
(-0.776909 0 0)
(-0.78401 0 0)
(-0.790965 0 0)
(-0.797775 0 0)
(-0.804444 0 0)
(-0.810971 0 0)
(-0.817358 0 0)
(-0.823607 0 0)
(-0.829719 0 0)
(-0.835696 0 0)
(-0.84154 0 0)
(-0.847251 0 0)
(-0.852832 0 0)
(-0.858283 0 0)
(-0.863606 0 0)
(-0.868804 0 0)
(-0.873876 0 0)
(-0.878825 0 0)
(-0.883653 0 0)
(-0.88836 0 0)
(-0.892948 0 0)
(-0.897418 0 0)
(-0.901773 0 0)
(-0.906012 0 0)
(-0.910139 0 0)
(-0.914153 0 0)
(-0.918057 0 0)
(-0.921852 0 0)
(-0.925539 0 0)
(-0.92912 0 0)
(-0.932595 0 0)
(-0.935966 0 0)
(-0.939235 0 0)
(-0.942402 0 0)
(-0.94547 0 0)
(-0.948438 0 0)
(-0.951309 0 0)
(-0.954084 0 0)
(-0.956763 0 0)
(-0.959349 0 0)
(-0.961842 0 0)
(-0.964242 0 0)
(-0.966553 0 0)
(-0.968774 0 0)
(-0.970906 0 0)
(-0.972952 0 0)
(-0.974911 0 0)
(-0.976785 0 0)
(-0.978576 0 0)
(-0.980283 0 0)
(-0.981908 0 0)
(-0.983452 0 0)
(-0.984917 0 0)
(-0.986302 0 0)
(-0.98761 0 0)
(-0.98884 0 0)
(-0.989994 0 0)
(-0.991073 0 0)
(-0.992078 0 0)
(-0.993009 0 0)
(-0.993868 0 0)
(-0.994655 0 0)
(-0.995371 0 0)
(-0.996018 0 0)
(-0.996595 0 0)
(-0.997104 0 0)
(-0.997546 0 0)
(-0.997921 0 0)
(-0.99823 0 0)
(-0.998474 0 0)
(-0.998654 0 0)
(-0.99877 0 0)
(-0.998824 0 0)
(-0.998815 0 0)
(-0.998745 0 0)
(-0.998615 0 0)
(-0.998424 0 0)
(-0.998175 0 0)
(-0.997867 0 0)
(-0.997501 0 0)
(-0.997077 0 0)
(-0.996598 0 0)
(-0.996062 0 0)
(-0.995471 0 0)
(-0.994826 0 0)
(-0.994126 0 0)
(-0.993373 0 0)
(-0.992568 0 0)
(-0.99171 0 0)
(-0.990801 0 0)
(-0.98984 0 0)
(-0.988829 0 0)
(-0.987769 0 0)
(-0.986659 0 0)
(-0.9855 0 0)
(-0.984293 0 0)
(-0.983038 0 0)
(-0.981736 0 0)
(-0.980388 0 0)
(-0.978993 0 0)
(-0.977553 0 0)
(-0.976067 0 0)
(-0.974537 0 0)
(-0.972963 0 0)
(-0.971345 0 0)
(-0.969684 0 0)
(-0.96798 0 0)
(-0.966234 0 0)
(-0.964446 0 0)
(-0.962617 0 0)
(-0.960747 0 0)
(-0.958836 0 0)
(-0.956885 0 0)
(-0.954895 0 0)
(-0.952865 0 0)
(-0.950797 0 0)
(-0.94869 0 0)
(-0.946546 0 0)
(-0.944363 0 0)
(-0.942144 0 0)
(-0.939887 0 0)
(-0.937595 0 0)
(-0.935266 0 0)
(-0.932902 0 0)
(-0.930502 0 0)
(-0.928068 0 0)
(-0.925599 0 0)
(-0.923095 0 0)
(-0.920558 0 0)
(-0.917988 0 0)
(-0.915384 0 0)
(-0.912748 0 0)
(-0.910079 0 0)
(-0.907378 0 0)
(-0.904645 0 0)
(-0.901881 0 0)
(-0.899085 0 0)
(-0.896259 0 0)
(-0.893402 0 0)
(-0.890515 0 0)
(-0.887599 0 0)
(-0.884652 0 0)
(-0.881677 0 0)
(-0.878672 0 0)
(-0.875639 0 0)
(-0.872577 0 0)
(-0.869487 0 0)
(-0.866369 0 0)
(-0.863224 0 0)
(-0.860051 0 0)
(-0.856852 0 0)
(-0.853626 0 0)
(-0.850373 0 0)
(-0.847094 0 0)
(-0.843789 0 0)
(-0.840459 0 0)
(-0.837103 0 0)
(-0.833722 0 0)
(-0.830316 0 0)
(-0.826886 0 0)
(-0.823431 0 0)
(-0.819952 0 0)
(-0.816449 0 0)
(-0.812922 0 0)
(-0.809372 0 0)
(-0.805799 0 0)
(-0.802203 0 0)
(-0.798584 0 0)
(-0.794942 0 0)
(-0.791279 0 0)
(-0.787593 0 0)
(-0.783885 0 0)
(-0.780156 0 0)
(-0.776405 0 0)
(-0.772634 0 0)
(-0.768841 0 0)
(-0.765027 0 0)
(-0.761193 0 0)
(-0.757339 0 0)
(-0.753464 0 0)
(-0.74957 0 0)
(-0.745656 0 0)
(-0.741722 0 0)
(-0.737769 0 0)
(-0.733797 0 0)
(-0.729806 0 0)
(-0.725796 0 0)
(-0.721768 0 0)
(-0.717721 0 0)
(-0.713656 0 0)
(-0.709574 0 0)
(-0.705473 0 0)
(-0.701355 0 0)
(-0.697219 0 0)
(-0.693066 0 0)
(-0.688896 0 0)
(-0.684709 0 0)
(-0.680505 0 0)
(-0.676285 0 0)
(-0.672048 0 0)
(-0.667796 0 0)
(-0.663527 0 0)
(-0.659242 0 0)
(-0.654942 0 0)
(-0.650626 0 0)
(-0.646294 0 0)
(-0.641948 0 0)
(-0.637586 0 0)
(-0.63321 0 0)
(-0.628818 0 0)
(-0.624413 0 0)
(-0.619993 0 0)
(-0.615558 0 0)
(-0.61111 0 0)
(-0.606647 0 0)
(-0.602171 0 0)
(-0.597681 0 0)
(-0.593177 0 0)
(-0.588661 0 0)
(-0.584131 0 0)
(-0.579588 0 0)
(-0.575032 0 0)
(-0.570463 0 0)
(-0.565882 0 0)
(-0.561288 0 0)
(-0.556682 0 0)
(-0.552064 0 0)
(-0.547433 0 0)
(-0.542791 0 0)
(-0.538137 0 0)
(-0.533471 0 0)
(-0.528794 0 0)
(-0.524106 0 0)
(-0.519406 0 0)
(-0.514695 0 0)
(-0.509973 0 0)
(-0.505241 0 0)
(-0.500498 0 0)
(-0.495744 0 0)
(-0.490979 0 0)
(-0.486205 0 0)
(-0.48142 0 0)
(-0.476625 0 0)
(-0.47182 0 0)
(-0.467006 0 0)
(-0.462182 0 0)
(-0.457348 0 0)
(-0.452505 0 0)
(-0.447652 0 0)
(-0.442791 0 0)
(-0.43792 0 0)
(-0.43304 0 0)
(-0.428152 0 0)
(-0.423255 0 0)
(-0.418349 0 0)
(-0.413435 0 0)
(-0.408512 0 0)
(-0.403581 0 0)
(-0.398643 0 0)
(-0.393696 0 0)
(-0.388741 0 0)
(-0.383779 0 0)
(-0.378809 0 0)
(-0.373831 0 0)
(-0.368846 0 0)
(-0.363854 0 0)
(-0.358855 0 0)
(-0.353848 0 0)
(-0.348835 0 0)
(-0.343814 0 0)
(-0.338787 0 0)
(-0.333754 0 0)
(-0.328713 0 0)
(-0.323667 0 0)
(-0.318614 0 0)
(-0.313555 0 0)
(-0.30849 0 0)
(-0.303419 0 0)
(-0.298342 0 0)
(-0.293259 0 0)
(-0.288171 0 0)
(-0.283077 0 0)
(-0.277977 0 0)
(-0.272873 0 0)
(-0.267763 0 0)
(-0.262648 0 0)
(-0.257528 0 0)
(-0.252403 0 0)
(-0.247273 0 0)
(-0.242139 0 0)
(-0.237 0 0)
(-0.231856 0 0)
(-0.226709 0 0)
(-0.221556 0 0)
(-0.2164 0 0)
(-0.21124 0 0)
(-0.206075 0 0)
(-0.200907 0 0)
(-0.195735 0 0)
(-0.190559 0 0)
(-0.18538 0 0)
(-0.180197 0 0)
(-0.175011 0 0)
(-0.169821 0 0)
(-0.164629 0 0)
(-0.159433 0 0)
(-0.154234 0 0)
(-0.149033 0 0)
(-0.143829 0 0)
(-0.138622 0 0)
(-0.133412 0 0)
(-0.1282 0 0)
(-0.122986 0 0)
(-0.117769 0 0)
(-0.11255 0 0)
(-0.107329 0 0)
(-0.102106 0 0)
(-0.0968812 0 0)
(-0.0916545 0 0)
(-0.0864262 0 0)
(-0.0811962 0 0)
(-0.0759648 0 0)
(-0.0707319 0 0)
(-0.0654978 0 0)
(-0.0602624 0 0)
(-0.0550259 0 0)
(-0.0497884 0 0)
(-0.04455 0 0)
(-0.0393107 0 0)
(-0.0340708 0 0)
(-0.0288302 0 0)
(-0.0235891 0 0)
(-0.0183475 0 0)
(-0.0131056 0 0)
(-0.00786345 0 0)
(-0.00262117 0 0)
)
;

boundaryField
{
    left
    {
        type            fixedValue;
        value           uniform (0 0 0);
    }
    right
    {
        type            fixedValue;
        value           uniform (0 0 0);
    }
    frontBackUpDown
    {
        type            empty;
    }
}


// ************************************************************************* //
