/*--------------------------------*- C++ -*----------------------------------*\
| =========                 |                                                 |
| \\      /  F ield         | OpenFOAM: The Open Source CFD Toolbox           |
|  \\    /   O peration     | Version:  2412                                  |
|   \\  /    A nd           | Website:  www.openfoam.com                      |
|    \\/     M anipulation  |                                                 |
\*---------------------------------------------------------------------------*/
FoamFile
{
    version     2.0;
    format      ascii;
    arch        "LSB;label=32;scalar=64";
    class       surfaceScalarField;
    location    "0.57";
    object      phi;
}
// * * * * * * * * * * * * * * * * * * * * * * * * * * * * * * * * * * * * * //

dimensions      [0 3 -1 0 0 0 0];

oriented        oriented;

internalField   nonuniform List<scalar> 
799
(
2.81582e-05
5.63165e-05
8.44746e-05
0.000112632
0.00014079
0.000168947
0.000197104
0.00022526
0.000253415
0.00028157
0.000309724
0.000337877
0.000366029
0.00039418
0.00042233
0.000450478
0.000478626
0.000506772
0.000534916
0.000563059
0.0005912
0.00061934
0.000647478
0.000675613
0.000703747
0.000731879
0.000760009
0.000788137
0.000816262
0.000844385
0.000872505
0.000900623
0.000928738
0.000956851
0.000984961
0.00101307
0.00104117
0.00106927
0.00109737
0.00112546
0.00115356
0.00118164
0.00120973
0.00123781
0.00126589
0.00129396
0.00132203
0.0013501
0.00137816
0.00140622
0.00143427
0.00146232
0.00149036
0.00151841
0.00154644
0.00157447
0.0016025
0.00163052
0.00165854
0.00168655
0.00171456
0.00174256
0.00177056
0.00179855
0.00182654
0.00185452
0.0018825
0.00191047
0.00193843
0.00196639
0.00199434
0.00202229
0.00205023
0.00207816
0.00210609
0.00213401
0.00216193
0.00218984
0.00221774
0.00224564
0.00227353
0.00230141
0.00232928
0.00235715
0.00238501
0.00241286
0.00244071
0.00246855
0.00249638
0.0025242
0.00255202
0.00257983
0.00260763
0.00263542
0.0026632
0.00269098
0.00271874
0.0027465
0.00277425
0.00280199
0.00282973
0.00285745
0.00288516
0.00291287
0.00294057
0.00296825
0.00299593
0.0030236
0.00305126
0.00307891
0.00310655
0.00313418
0.0031618
0.00318941
0.00321701
0.0032446
0.00327218
0.00329974
0.0033273
0.00335485
0.00338238
0.00340991
0.00343742
0.00346493
0.00349242
0.0035199
0.00354737
0.00357482
0.00360227
0.0036297
0.00365713
0.00368453
0.00371193
0.00373932
0.00376669
0.00379405
0.0038214
0.00384873
0.00387605
0.00390336
0.00393066
0.00395794
0.00398521
0.00401246
0.00403971
0.00406693
0.00409415
0.00412135
0.00414853
0.0041757
0.00420286
0.00423
0.00425713
0.00428424
0.00431134
0.00433842
0.00436549
0.00439254
0.00441958
0.0044466
0.00447361
0.0045006
0.00452757
0.00455453
0.00458147
0.00460839
0.0046353
0.00466219
0.00468907
0.00471592
0.00474276
0.00476959
0.00479639
0.00482318
0.00484995
0.0048767
0.00490343
0.00493015
0.00495685
0.00498352
0.00501018
0.00503683
0.00506345
0.00509005
0.00511663
0.00514319
0.00516974
0.00519626
0.00522277
0.00524925
0.00527571
0.00530215
0.00532858
0.00535498
0.00538136
0.00540771
0.00543405
0.00546037
0.00548666
0.00551293
0.00553918
0.00556541
0.00559161
0.00561779
0.00564395
0.00567008
0.00569619
0.00572228
0.00574835
0.00577439
0.0058004
0.00582639
0.00585236
0.0058783
0.00590422
0.00593011
0.00595598
0.00598182
0.00600763
0.00603342
0.00605918
0.00608492
0.00611063
0.00613631
0.00616196
0.00618759
0.00621319
0.00623876
0.0062643
0.00628982
0.0063153
0.00634076
0.00636619
0.00639159
0.00641695
0.00644229
0.0064676
0.00649288
0.00651812
0.00654334
0.00656852
0.00659368
0.0066188
0.00664388
0.00666894
0.00669396
0.00671895
0.00674391
0.00676883
0.00679372
0.00681858
0.00684339
0.00686818
0.00689293
0.00691764
0.00694232
0.00696696
0.00699157
0.00701614
0.00704067
0.00706516
0.00708962
0.00711404
0.00713842
0.00716276
0.00718706
0.00721132
0.00723554
0.00725972
0.00728386
0.00730795
0.00733201
0.00735602
0.00738
0.00740393
0.00742781
0.00745165
0.00747545
0.0074992
0.00752291
0.00754657
0.00757019
0.00759376
0.00761728
0.00764076
0.00766419
0.00768757
0.0077109
0.00773418
0.00775741
0.00778059
0.00780372
0.0078268
0.00784983
0.0078728
0.00789573
0.00791859
0.00794141
0.00796417
0.00798687
0.00800952
0.00803211
0.00805465
0.00807712
0.00809954
0.0081219
0.0081442
0.00816644
0.00818862
0.00821074
0.00823279
0.00825478
0.00827671
0.00829857
0.00832037
0.0083421
0.00836377
0.00838536
0.00840689
0.00842835
0.00844974
0.00847106
0.0084923
0.00851348
0.00853458
0.0085556
0.00857656
0.00859743
0.00861823
0.00863895
0.00865958
0.00868014
0.00870062
0.00872102
0.00874133
0.00876156
0.0087817
0.00880176
0.00882172
0.0088416
0.00886139
0.00888108
0.00890069
0.0089202
0.00893961
0.00895893
0.00897815
0.00899727
0.00901628
0.0090352
0.00905401
0.00907272
0.00909132
0.00910981
0.00912819
0.00914645
0.00916461
0.00918265
0.00920057
0.00921837
0.00923605
0.00925361
0.00927104
0.00928834
0.00930552
0.00932256
0.00933947
0.00935625
0.00937288
0.00938938
0.00940573
0.00942193
0.00943799
0.0094539
0.00946965
0.00948525
0.00950068
0.00951595
0.00953106
0.009546
0.00956076
0.00957535
0.00958976
0.00960399
0.00961803
0.00963188
0.00964553
0.00965899
0.00967224
0.00968528
0.00969812
0.00971073
0.00972312
0.0097353
0.00974712
0.00975989
0.0097608
0.00987258
0.00800258
7.04401e-06
-0.00799555
-0.00987258
-0.00976079
-0.00975988
-0.00974711
-0.00973529
-0.00972311
-0.00971072
-0.00969811
-0.00968527
-0.00967223
-0.00965898
-0.00964552
-0.00963187
-0.00961802
-0.00960398
-0.00958975
-0.00957534
-0.00956075
-0.00954599
-0.00953105
-0.00951594
-0.00950067
-0.00948523
-0.00946964
-0.00945388
-0.00943798
-0.00942192
-0.00940571
-0.00938936
-0.00937287
-0.00935623
-0.00933946
-0.00932255
-0.0093055
-0.00928833
-0.00927102
-0.00925359
-0.00923603
-0.00921835
-0.00920055
-0.00918263
-0.00916459
-0.00914644
-0.00912817
-0.00910979
-0.0090913
-0.0090727
-0.00905399
-0.00903518
-0.00901627
-0.00899725
-0.00897813
-0.00895891
-0.00893959
-0.00892018
-0.00890067
-0.00888106
-0.00886137
-0.00884158
-0.0088217
-0.00880173
-0.00878168
-0.00876154
-0.00874131
-0.008721
-0.0087006
-0.00868012
-0.00865956
-0.00863892
-0.0086182
-0.00859741
-0.00857653
-0.00855558
-0.00853456
-0.00851346
-0.00849228
-0.00847104
-0.00844972
-0.00842833
-0.00840687
-0.00838534
-0.00836374
-0.00834208
-0.00832035
-0.00829855
-0.00827669
-0.00825476
-0.00823277
-0.00821071
-0.0081886
-0.00816642
-0.00814418
-0.00812188
-0.00809952
-0.0080771
-0.00805462
-0.00803209
-0.0080095
-0.00798685
-0.00796414
-0.00794138
-0.00791857
-0.0078957
-0.00787278
-0.00784981
-0.00782678
-0.0078037
-0.00778057
-0.00775739
-0.00773415
-0.00771087
-0.00768754
-0.00766416
-0.00764074
-0.00761726
-0.00759374
-0.00757017
-0.00754655
-0.00752289
-0.00749918
-0.00747543
-0.00745163
-0.00742779
-0.0074039
-0.00737997
-0.007356
-0.00733199
-0.00730793
-0.00728383
-0.00725969
-0.00723551
-0.00721129
-0.00718703
-0.00716273
-0.00713839
-0.00711401
-0.0070896
-0.00706514
-0.00704065
-0.00701612
-0.00699155
-0.00696694
-0.0069423
-0.00691762
-0.00689291
-0.00686816
-0.00684337
-0.00681855
-0.0067937
-0.00676881
-0.00674389
-0.00671893
-0.00669394
-0.00666892
-0.00664386
-0.00661878
-0.00659365
-0.0065685
-0.00654332
-0.0065181
-0.00649286
-0.00646758
-0.00644227
-0.00641693
-0.00639157
-0.00636617
-0.00634074
-0.00631528
-0.0062898
-0.00626428
-0.00623874
-0.00621317
-0.00618757
-0.00616194
-0.00613629
-0.00611061
-0.0060849
-0.00605916
-0.0060334
-0.00600761
-0.0059818
-0.00595596
-0.00593009
-0.0059042
-0.00587828
-0.00585234
-0.00582638
-0.00580038
-0.00577437
-0.00574833
-0.00572227
-0.00569618
-0.00567007
-0.00564393
-0.00561777
-0.00559159
-0.00556539
-0.00553916
-0.00551291
-0.00548664
-0.00546035
-0.00543403
-0.0054077
-0.00538134
-0.00535496
-0.00532856
-0.00530214
-0.0052757
-0.00524923
-0.00522275
-0.00519625
-0.00516972
-0.00514318
-0.00511662
-0.00509003
-0.00506343
-0.00503681
-0.00501017
-0.00498351
-0.00495683
-0.00493014
-0.00490342
-0.00487669
-0.00484994
-0.00482317
-0.00479638
-0.00476957
-0.00474275
-0.00471591
-0.00468906
-0.00466218
-0.00463529
-0.00460838
-0.00458146
-0.00455452
-0.00452756
-0.00450059
-0.0044736
-0.00444659
-0.00441957
-0.00439253
-0.00436548
-0.00433841
-0.00431133
-0.00428423
-0.00425712
-0.00422999
-0.00420285
-0.00417569
-0.00414852
-0.00412134
-0.00409414
-0.00406692
-0.0040397
-0.00401245
-0.0039852
-0.00395793
-0.00393065
-0.00390335
-0.00387604
-0.00384872
-0.00382139
-0.00379404
-0.00376668
-0.00373931
-0.00371192
-0.00368453
-0.00365712
-0.0036297
-0.00360226
-0.00357482
-0.00354736
-0.00351989
-0.00349241
-0.00346492
-0.00343742
-0.0034099
-0.00338238
-0.00335484
-0.0033273
-0.00329974
-0.00327217
-0.00324459
-0.003217
-0.0031894
-0.00316179
-0.00313417
-0.00310654
-0.0030789
-0.00305125
-0.0030236
-0.00299593
-0.00296825
-0.00294056
-0.00291287
-0.00288516
-0.00285744
-0.00282972
-0.00280199
-0.00277425
-0.0027465
-0.00271874
-0.00269097
-0.0026632
-0.00263541
-0.00260762
-0.00257982
-0.00255201
-0.0025242
-0.00249638
-0.00246855
-0.00244071
-0.00241286
-0.00238501
-0.00235715
-0.00232928
-0.0023014
-0.00227352
-0.00224563
-0.00221774
-0.00218984
-0.00216193
-0.00213401
-0.00210609
-0.00207816
-0.00205023
-0.00202229
-0.00199434
-0.00196639
-0.00193843
-0.00191046
-0.00188249
-0.00185452
-0.00182654
-0.00179855
-0.00177056
-0.00174256
-0.00171456
-0.00168655
-0.00165854
-0.00163052
-0.0016025
-0.00157447
-0.00154644
-0.0015184
-0.00149036
-0.00146232
-0.00143427
-0.00140621
-0.00137816
-0.00135009
-0.00132203
-0.00129396
-0.00126589
-0.00123781
-0.00120973
-0.00118164
-0.00115356
-0.00112546
-0.00109737
-0.00106927
-0.00104117
-0.00101307
-0.00098496
-0.00095685
-0.000928738
-0.000900622
-0.000872505
-0.000844384
-0.000816261
-0.000788136
-0.000760009
-0.000731879
-0.000703747
-0.000675613
-0.000647477
-0.00061934
-0.0005912
-0.000563059
-0.000534916
-0.000506771
-0.000478626
-0.000450478
-0.00042233
-0.00039418
-0.000366029
-0.000337877
-0.000309724
-0.00028157
-0.000253415
-0.00022526
-0.000197104
-0.000168947
-0.00014079
-0.000112633
-8.44747e-05
-5.63166e-05
-2.81584e-05
)
;

boundaryField
{
    left
    {
        type            calculated;
        value           uniform 0;
    }
    right
    {
        type            calculated;
        value           uniform 0;
    }
    frontBackUpDown
    {
        type            empty;
    }
}


// ************************************************************************* //
