/*--------------------------------*- C++ -*----------------------------------*\
| =========                 |                                                 |
| \\      /  F ield         | OpenFOAM: The Open Source CFD Toolbox           |
|  \\    /   O peration     | Version:  2412                                  |
|   \\  /    A nd           | Website:  www.openfoam.com                      |
|    \\/     M anipulation  |                                                 |
\*---------------------------------------------------------------------------*/
FoamFile
{
    version     2.0;
    format      ascii;
    arch        "LSB;label=32;scalar=64";
    class       volVectorField;
    location    "0.57";
    object      U_0;
}
// * * * * * * * * * * * * * * * * * * * * * * * * * * * * * * * * * * * * * //

dimensions      [0 1 -1 0 0 0 0];

internalField   nonuniform List<vector> 
800
(
(0.0014087 0 0)
(0.00422611 0 0)
(0.00704352 0 0)
(0.0098609 0 0)
(0.0126783 0 0)
(0.0154956 0 0)
(0.0183129 0 0)
(0.0211301 0 0)
(0.0239472 0 0)
(0.0267643 0 0)
(0.0295813 0 0)
(0.0323983 0 0)
(0.0352151 0 0)
(0.0380318 0 0)
(0.0408485 0 0)
(0.043665 0 0)
(0.0464814 0 0)
(0.0492976 0 0)
(0.0521137 0 0)
(0.0549296 0 0)
(0.0577454 0 0)
(0.0605611 0 0)
(0.0633765 0 0)
(0.0661918 0 0)
(0.0690068 0 0)
(0.0718217 0 0)
(0.0746364 0 0)
(0.0774508 0 0)
(0.080265 0 0)
(0.083079 0 0)
(0.0858928 0 0)
(0.0887063 0 0)
(0.0915195 0 0)
(0.0943325 0 0)
(0.0971452 0 0)
(0.0999576 0 0)
(0.10277 0 0)
(0.105582 0 0)
(0.108393 0 0)
(0.111204 0 0)
(0.114015 0 0)
(0.116826 0 0)
(0.119636 0 0)
(0.122446 0 0)
(0.125255 0 0)
(0.128064 0 0)
(0.130873 0 0)
(0.133681 0 0)
(0.136489 0 0)
(0.139297 0 0)
(0.142104 0 0)
(0.144911 0 0)
(0.147717 0 0)
(0.150523 0 0)
(0.153328 0 0)
(0.156133 0 0)
(0.158938 0 0)
(0.161742 0 0)
(0.164545 0 0)
(0.167348 0 0)
(0.170151 0 0)
(0.172953 0 0)
(0.175755 0 0)
(0.178556 0 0)
(0.181356 0 0)
(0.184156 0 0)
(0.186955 0 0)
(0.189754 0 0)
(0.192553 0 0)
(0.19535 0 0)
(0.198147 0 0)
(0.200944 0 0)
(0.20374 0 0)
(0.206535 0 0)
(0.20933 0 0)
(0.212124 0 0)
(0.214917 0 0)
(0.21771 0 0)
(0.220502 0 0)
(0.223293 0 0)
(0.226084 0 0)
(0.228874 0 0)
(0.231664 0 0)
(0.234452 0 0)
(0.23724 0 0)
(0.240027 0 0)
(0.242814 0 0)
(0.2456 0 0)
(0.248385 0 0)
(0.251169 0 0)
(0.253952 0 0)
(0.256735 0 0)
(0.259517 0 0)
(0.262298 0 0)
(0.265078 0 0)
(0.267858 0 0)
(0.270636 0 0)
(0.273414 0 0)
(0.276191 0 0)
(0.278967 0 0)
(0.281742 0 0)
(0.284516 0 0)
(0.28729 0 0)
(0.290062 0 0)
(0.292834 0 0)
(0.295605 0 0)
(0.298374 0 0)
(0.301143 0 0)
(0.303911 0 0)
(0.306678 0 0)
(0.309444 0 0)
(0.312209 0 0)
(0.314973 0 0)
(0.317736 0 0)
(0.320498 0 0)
(0.323259 0 0)
(0.326018 0 0)
(0.328777 0 0)
(0.331535 0 0)
(0.334292 0 0)
(0.337047 0 0)
(0.339802 0 0)
(0.342555 0 0)
(0.345307 0 0)
(0.348059 0 0)
(0.350809 0 0)
(0.353558 0 0)
(0.356305 0 0)
(0.359052 0 0)
(0.361797 0 0)
(0.364541 0 0)
(0.367284 0 0)
(0.370026 0 0)
(0.372767 0 0)
(0.375506 0 0)
(0.378244 0 0)
(0.380981 0 0)
(0.383716 0 0)
(0.38645 0 0)
(0.389183 0 0)
(0.391915 0 0)
(0.394645 0 0)
(0.397374 0 0)
(0.400102 0 0)
(0.402828 0 0)
(0.405553 0 0)
(0.408276 0 0)
(0.410998 0 0)
(0.413719 0 0)
(0.416438 0 0)
(0.419156 0 0)
(0.421872 0 0)
(0.424587 0 0)
(0.4273 0 0)
(0.430012 0 0)
(0.432723 0 0)
(0.435432 0 0)
(0.438139 0 0)
(0.440845 0 0)
(0.443549 0 0)
(0.446252 0 0)
(0.448953 0 0)
(0.451652 0 0)
(0.45435 0 0)
(0.457046 0 0)
(0.459741 0 0)
(0.462434 0 0)
(0.465125 0 0)
(0.467815 0 0)
(0.470502 0 0)
(0.473189 0 0)
(0.475873 0 0)
(0.478556 0 0)
(0.481236 0 0)
(0.483916 0 0)
(0.486593 0 0)
(0.489268 0 0)
(0.491942 0 0)
(0.494614 0 0)
(0.497284 0 0)
(0.499952 0 0)
(0.502618 0 0)
(0.505283 0 0)
(0.507945 0 0)
(0.510606 0 0)
(0.513264 0 0)
(0.515921 0 0)
(0.518575 0 0)
(0.521228 0 0)
(0.523878 0 0)
(0.526527 0 0)
(0.529173 0 0)
(0.531818 0 0)
(0.53446 0 0)
(0.5371 0 0)
(0.539738 0 0)
(0.542374 0 0)
(0.545008 0 0)
(0.547639 0 0)
(0.550269 0 0)
(0.552896 0 0)
(0.555521 0 0)
(0.558143 0 0)
(0.560764 0 0)
(0.563382 0 0)
(0.565998 0 0)
(0.568611 0 0)
(0.571222 0 0)
(0.573831 0 0)
(0.576437 0 0)
(0.579041 0 0)
(0.581642 0 0)
(0.584241 0 0)
(0.586838 0 0)
(0.589432 0 0)
(0.592023 0 0)
(0.594612 0 0)
(0.597199 0 0)
(0.599782 0 0)
(0.602364 0 0)
(0.604942 0 0)
(0.607518 0 0)
(0.610091 0 0)
(0.612662 0 0)
(0.61523 0 0)
(0.617795 0 0)
(0.620357 0 0)
(0.622916 0 0)
(0.625473 0 0)
(0.628027 0 0)
(0.630578 0 0)
(0.633126 0 0)
(0.635671 0 0)
(0.638213 0 0)
(0.640752 0 0)
(0.643289 0 0)
(0.645822 0 0)
(0.648352 0 0)
(0.650879 0 0)
(0.653403 0 0)
(0.655924 0 0)
(0.658442 0 0)
(0.660956 0 0)
(0.663467 0 0)
(0.665975 0 0)
(0.66848 0 0)
(0.670982 0 0)
(0.67348 0 0)
(0.675974 0 0)
(0.678466 0 0)
(0.680954 0 0)
(0.683438 0 0)
(0.685919 0 0)
(0.688397 0 0)
(0.690871 0 0)
(0.693341 0 0)
(0.695808 0 0)
(0.698271 0 0)
(0.70073 0 0)
(0.703186 0 0)
(0.705638 0 0)
(0.708086 0 0)
(0.71053 0 0)
(0.712971 0 0)
(0.715407 0 0)
(0.71784 0 0)
(0.720269 0 0)
(0.722693 0 0)
(0.725114 0 0)
(0.727531 0 0)
(0.729943 0 0)
(0.732351 0 0)
(0.734755 0 0)
(0.737155 0 0)
(0.739551 0 0)
(0.741942 0 0)
(0.744329 0 0)
(0.746711 0 0)
(0.749089 0 0)
(0.751463 0 0)
(0.753832 0 0)
(0.756196 0 0)
(0.758556 0 0)
(0.760911 0 0)
(0.763261 0 0)
(0.765607 0 0)
(0.767948 0 0)
(0.770283 0 0)
(0.772614 0 0)
(0.77494 0 0)
(0.777261 0 0)
(0.779577 0 0)
(0.781888 0 0)
(0.784194 0 0)
(0.786494 0 0)
(0.788789 0 0)
(0.791079 0 0)
(0.793363 0 0)
(0.795642 0 0)
(0.797915 0 0)
(0.800183 0 0)
(0.802445 0 0)
(0.804702 0 0)
(0.806952 0 0)
(0.809197 0 0)
(0.811436 0 0)
(0.813669 0 0)
(0.815896 0 0)
(0.818117 0 0)
(0.820332 0 0)
(0.82254 0 0)
(0.824743 0 0)
(0.826938 0 0)
(0.829128 0 0)
(0.831311 0 0)
(0.833487 0 0)
(0.835657 0 0)
(0.83782 0 0)
(0.839976 0 0)
(0.842125 0 0)
(0.844267 0 0)
(0.846402 0 0)
(0.84853 0 0)
(0.850651 0 0)
(0.852764 0 0)
(0.85487 0 0)
(0.856969 0 0)
(0.85906 0 0)
(0.861143 0 0)
(0.863218 0 0)
(0.865286 0 0)
(0.867345 0 0)
(0.869396 0 0)
(0.871439 0 0)
(0.873474 0 0)
(0.875501 0 0)
(0.877518 0 0)
(0.879528 0 0)
(0.881528 0 0)
(0.88352 0 0)
(0.885502 0 0)
(0.887475 0 0)
(0.88944 0 0)
(0.891394 0 0)
(0.89334 0 0)
(0.895275 0 0)
(0.897201 0 0)
(0.899117 0 0)
(0.901023 0 0)
(0.902918 0 0)
(0.904804 0 0)
(0.906678 0 0)
(0.908542 0 0)
(0.910396 0 0)
(0.912238 0 0)
(0.914069 0 0)
(0.915889 0 0)
(0.917697 0 0)
(0.919493 0 0)
(0.921278 0 0)
(0.92305 0 0)
(0.924811 0 0)
(0.926559 0 0)
(0.928294 0 0)
(0.930016 0 0)
(0.931725 0 0)
(0.933421 0 0)
(0.935103 0 0)
(0.936772 0 0)
(0.938426 0 0)
(0.940066 0 0)
(0.941692 0 0)
(0.943303 0 0)
(0.944899 0 0)
(0.94648 0 0)
(0.948045 0 0)
(0.949594 0 0)
(0.951127 0 0)
(0.952643 0 0)
(0.954143 0 0)
(0.955625 0 0)
(0.95709 0 0)
(0.958537 0 0)
(0.959966 0 0)
(0.961376 0 0)
(0.962767 0 0)
(0.964139 0 0)
(0.965491 0 0)
(0.966823 0 0)
(0.968135 0 0)
(0.969425 0 0)
(0.970693 0 0)
(0.97194 0 0)
(0.973163 0 0)
(0.974367 0 0)
(0.975519 0 0)
(0.976913 0 0)
(0.975685 0 0)
(0.999306 0 0)
(0.601727 0 0)
(-0.600317 0 0)
(-0.999307 0 0)
(-0.975684 0 0)
(-0.976912 0 0)
(-0.975518 0 0)
(-0.974366 0 0)
(-0.973163 0 0)
(-0.971939 0 0)
(-0.970692 0 0)
(-0.969424 0 0)
(-0.968134 0 0)
(-0.966822 0 0)
(-0.96549 0 0)
(-0.964138 0 0)
(-0.962766 0 0)
(-0.961375 0 0)
(-0.959965 0 0)
(-0.958536 0 0)
(-0.957089 0 0)
(-0.955624 0 0)
(-0.954141 0 0)
(-0.952642 0 0)
(-0.951125 0 0)
(-0.949592 0 0)
(-0.948043 0 0)
(-0.946478 0 0)
(-0.944898 0 0)
(-0.943302 0 0)
(-0.941691 0 0)
(-0.940065 0 0)
(-0.938425 0 0)
(-0.93677 0 0)
(-0.935102 0 0)
(-0.933419 0 0)
(-0.931723 0 0)
(-0.930014 0 0)
(-0.928292 0 0)
(-0.926557 0 0)
(-0.924809 0 0)
(-0.923049 0 0)
(-0.921276 0 0)
(-0.919492 0 0)
(-0.917695 0 0)
(-0.915887 0 0)
(-0.914067 0 0)
(-0.912236 0 0)
(-0.910394 0 0)
(-0.908541 0 0)
(-0.906676 0 0)
(-0.904802 0 0)
(-0.902916 0 0)
(-0.901021 0 0)
(-0.899115 0 0)
(-0.897199 0 0)
(-0.895273 0 0)
(-0.893338 0 0)
(-0.891392 0 0)
(-0.889438 0 0)
(-0.887473 0 0)
(-0.8855 0 0)
(-0.883517 0 0)
(-0.881526 0 0)
(-0.879525 0 0)
(-0.877516 0 0)
(-0.875498 0 0)
(-0.873472 0 0)
(-0.871437 0 0)
(-0.869394 0 0)
(-0.867343 0 0)
(-0.865283 0 0)
(-0.863216 0 0)
(-0.861141 0 0)
(-0.859057 0 0)
(-0.856967 0 0)
(-0.854868 0 0)
(-0.852762 0 0)
(-0.850649 0 0)
(-0.848528 0 0)
(-0.8464 0 0)
(-0.844265 0 0)
(-0.842123 0 0)
(-0.839974 0 0)
(-0.837817 0 0)
(-0.835655 0 0)
(-0.833485 0 0)
(-0.831309 0 0)
(-0.829126 0 0)
(-0.826936 0 0)
(-0.82474 0 0)
(-0.822538 0 0)
(-0.82033 0 0)
(-0.818115 0 0)
(-0.815894 0 0)
(-0.813667 0 0)
(-0.811434 0 0)
(-0.809195 0 0)
(-0.80695 0 0)
(-0.804699 0 0)
(-0.802443 0 0)
(-0.800181 0 0)
(-0.797913 0 0)
(-0.79564 0 0)
(-0.793361 0 0)
(-0.791076 0 0)
(-0.788787 0 0)
(-0.786492 0 0)
(-0.784191 0 0)
(-0.781886 0 0)
(-0.779575 0 0)
(-0.777259 0 0)
(-0.774938 0 0)
(-0.772612 0 0)
(-0.770281 0 0)
(-0.767945 0 0)
(-0.765604 0 0)
(-0.763259 0 0)
(-0.760909 0 0)
(-0.758554 0 0)
(-0.756194 0 0)
(-0.753829 0 0)
(-0.75146 0 0)
(-0.749087 0 0)
(-0.746709 0 0)
(-0.744326 0 0)
(-0.74194 0 0)
(-0.739548 0 0)
(-0.737153 0 0)
(-0.734753 0 0)
(-0.732349 0 0)
(-0.729941 0 0)
(-0.727528 0 0)
(-0.725112 0 0)
(-0.722691 0 0)
(-0.720266 0 0)
(-0.717838 0 0)
(-0.715405 0 0)
(-0.712969 0 0)
(-0.710528 0 0)
(-0.708084 0 0)
(-0.705636 0 0)
(-0.703184 0 0)
(-0.700728 0 0)
(-0.698269 0 0)
(-0.695806 0 0)
(-0.693339 0 0)
(-0.690868 0 0)
(-0.688395 0 0)
(-0.685917 0 0)
(-0.683436 0 0)
(-0.680952 0 0)
(-0.678464 0 0)
(-0.675972 0 0)
(-0.673478 0 0)
(-0.670979 0 0)
(-0.668478 0 0)
(-0.665973 0 0)
(-0.663465 0 0)
(-0.660954 0 0)
(-0.658439 0 0)
(-0.655922 0 0)
(-0.653401 0 0)
(-0.650877 0 0)
(-0.64835 0 0)
(-0.64582 0 0)
(-0.643287 0 0)
(-0.64075 0 0)
(-0.638211 0 0)
(-0.635669 0 0)
(-0.633124 0 0)
(-0.630576 0 0)
(-0.628025 0 0)
(-0.625471 0 0)
(-0.622914 0 0)
(-0.620355 0 0)
(-0.617793 0 0)
(-0.615228 0 0)
(-0.61266 0 0)
(-0.610089 0 0)
(-0.607516 0 0)
(-0.60494 0 0)
(-0.602362 0 0)
(-0.599781 0 0)
(-0.597197 0 0)
(-0.59461 0 0)
(-0.592022 0 0)
(-0.58943 0 0)
(-0.586836 0 0)
(-0.58424 0 0)
(-0.581641 0 0)
(-0.579039 0 0)
(-0.576435 0 0)
(-0.573829 0 0)
(-0.57122 0 0)
(-0.568609 0 0)
(-0.565996 0 0)
(-0.56338 0 0)
(-0.560762 0 0)
(-0.558142 0 0)
(-0.555519 0 0)
(-0.552894 0 0)
(-0.550267 0 0)
(-0.547638 0 0)
(-0.545006 0 0)
(-0.542372 0 0)
(-0.539737 0 0)
(-0.537099 0 0)
(-0.534458 0 0)
(-0.531816 0 0)
(-0.529172 0 0)
(-0.526525 0 0)
(-0.523877 0 0)
(-0.521226 0 0)
(-0.518574 0 0)
(-0.515919 0 0)
(-0.513263 0 0)
(-0.510604 0 0)
(-0.507944 0 0)
(-0.505281 0 0)
(-0.502617 0 0)
(-0.499951 0 0)
(-0.497283 0 0)
(-0.494613 0 0)
(-0.491941 0 0)
(-0.489267 0 0)
(-0.486592 0 0)
(-0.483914 0 0)
(-0.481235 0 0)
(-0.478554 0 0)
(-0.475872 0 0)
(-0.473187 0 0)
(-0.470501 0 0)
(-0.467813 0 0)
(-0.465124 0 0)
(-0.462432 0 0)
(-0.45974 0 0)
(-0.457045 0 0)
(-0.454349 0 0)
(-0.451651 0 0)
(-0.448952 0 0)
(-0.44625 0 0)
(-0.443548 0 0)
(-0.440844 0 0)
(-0.438138 0 0)
(-0.43543 0 0)
(-0.432722 0 0)
(-0.430011 0 0)
(-0.427299 0 0)
(-0.424586 0 0)
(-0.421871 0 0)
(-0.419155 0 0)
(-0.416437 0 0)
(-0.413718 0 0)
(-0.410997 0 0)
(-0.408275 0 0)
(-0.405552 0 0)
(-0.402827 0 0)
(-0.400101 0 0)
(-0.397373 0 0)
(-0.394644 0 0)
(-0.391914 0 0)
(-0.389182 0 0)
(-0.38645 0 0)
(-0.383715 0 0)
(-0.38098 0 0)
(-0.378243 0 0)
(-0.375505 0 0)
(-0.372766 0 0)
(-0.370025 0 0)
(-0.367284 0 0)
(-0.364541 0 0)
(-0.361796 0 0)
(-0.359051 0 0)
(-0.356304 0 0)
(-0.353557 0 0)
(-0.350808 0 0)
(-0.348058 0 0)
(-0.345307 0 0)
(-0.342554 0 0)
(-0.339801 0 0)
(-0.337047 0 0)
(-0.334291 0 0)
(-0.331534 0 0)
(-0.328777 0 0)
(-0.326018 0 0)
(-0.323258 0 0)
(-0.320497 0 0)
(-0.317735 0 0)
(-0.314972 0 0)
(-0.312208 0 0)
(-0.309443 0 0)
(-0.306677 0 0)
(-0.303911 0 0)
(-0.301143 0 0)
(-0.298374 0 0)
(-0.295604 0 0)
(-0.292833 0 0)
(-0.290062 0 0)
(-0.287289 0 0)
(-0.284516 0 0)
(-0.281742 0 0)
(-0.278967 0 0)
(-0.27619 0 0)
(-0.273414 0 0)
(-0.270636 0 0)
(-0.267857 0 0)
(-0.265078 0 0)
(-0.262298 0 0)
(-0.259516 0 0)
(-0.256735 0 0)
(-0.253952 0 0)
(-0.251168 0 0)
(-0.248384 0 0)
(-0.245599 0 0)
(-0.242814 0 0)
(-0.240027 0 0)
(-0.23724 0 0)
(-0.234452 0 0)
(-0.231663 0 0)
(-0.228874 0 0)
(-0.226084 0 0)
(-0.223293 0 0)
(-0.220502 0 0)
(-0.21771 0 0)
(-0.214917 0 0)
(-0.212123 0 0)
(-0.209329 0 0)
(-0.206535 0 0)
(-0.20374 0 0)
(-0.200944 0 0)
(-0.198147 0 0)
(-0.19535 0 0)
(-0.192552 0 0)
(-0.189754 0 0)
(-0.186955 0 0)
(-0.184156 0 0)
(-0.181356 0 0)
(-0.178555 0 0)
(-0.175754 0 0)
(-0.172953 0 0)
(-0.170151 0 0)
(-0.167348 0 0)
(-0.164545 0 0)
(-0.161742 0 0)
(-0.158938 0 0)
(-0.156133 0 0)
(-0.153328 0 0)
(-0.150523 0 0)
(-0.147717 0 0)
(-0.144911 0 0)
(-0.142104 0 0)
(-0.139297 0 0)
(-0.136489 0 0)
(-0.133681 0 0)
(-0.130873 0 0)
(-0.128064 0 0)
(-0.125255 0 0)
(-0.122446 0 0)
(-0.119636 0 0)
(-0.116826 0 0)
(-0.114015 0 0)
(-0.111204 0 0)
(-0.108393 0 0)
(-0.105581 0 0)
(-0.10277 0 0)
(-0.0999575 0 0)
(-0.0971451 0 0)
(-0.0943324 0 0)
(-0.0915194 0 0)
(-0.0887062 0 0)
(-0.0858927 0 0)
(-0.083079 0 0)
(-0.080265 0 0)
(-0.0774508 0 0)
(-0.0746363 0 0)
(-0.0718217 0 0)
(-0.0690068 0 0)
(-0.0661917 0 0)
(-0.0633765 0 0)
(-0.060561 0 0)
(-0.0577454 0 0)
(-0.0549296 0 0)
(-0.0521137 0 0)
(-0.0492976 0 0)
(-0.0464813 0 0)
(-0.043665 0 0)
(-0.0408485 0 0)
(-0.0380318 0 0)
(-0.0352151 0 0)
(-0.0323983 0 0)
(-0.0295813 0 0)
(-0.0267643 0 0)
(-0.0239472 0 0)
(-0.0211301 0 0)
(-0.0183129 0 0)
(-0.0154956 0 0)
(-0.0126783 0 0)
(-0.00986092 0 0)
(-0.00704353 0 0)
(-0.00422613 0 0)
(-0.00140871 0 0)
)
;

boundaryField
{
    left
    {
        type            fixedValue;
        value           uniform (0 0 0);
    }
    right
    {
        type            fixedValue;
        value           uniform (0 0 0);
    }
    frontBackUpDown
    {
        type            empty;
    }
}


// ************************************************************************* //
