/*--------------------------------*- C++ -*----------------------------------*\
| =========                 |                                                 |
| \\      /  F ield         | OpenFOAM: The Open Source CFD Toolbox           |
|  \\    /   O peration     | Version:  2412                                  |
|   \\  /    A nd           | Website:  www.openfoam.com                      |
|    \\/     M anipulation  |                                                 |
\*---------------------------------------------------------------------------*/
FoamFile
{
    version     2.0;
    format      ascii;
    arch        "LSB;label=32;scalar=64";
    class       volVectorField;
    location    "0.57";
    object      U_0_0;
}
// * * * * * * * * * * * * * * * * * * * * * * * * * * * * * * * * * * * * * //

dimensions      [0 1 -1 0 0 0 0];

internalField   nonuniform List<vector> 
800
(
(0.00140949 0 0)
(0.00422849 0 0)
(0.00704748 0 0)
(0.00986645 0 0)
(0.0126854 0 0)
(0.0155043 0 0)
(0.0183232 0 0)
(0.021142 0 0)
(0.0239607 0 0)
(0.0267794 0 0)
(0.029598 0 0)
(0.0324165 0 0)
(0.0352349 0 0)
(0.0380532 0 0)
(0.0408714 0 0)
(0.0436895 0 0)
(0.0465075 0 0)
(0.0493253 0 0)
(0.052143 0 0)
(0.0549605 0 0)
(0.0577779 0 0)
(0.0605951 0 0)
(0.0634121 0 0)
(0.066229 0 0)
(0.0690456 0 0)
(0.0718621 0 0)
(0.0746783 0 0)
(0.0774944 0 0)
(0.0803102 0 0)
(0.0831257 0 0)
(0.085941 0 0)
(0.0887561 0 0)
(0.0915709 0 0)
(0.0943855 0 0)
(0.0971997 0 0)
(0.100014 0 0)
(0.102827 0 0)
(0.105641 0 0)
(0.108454 0 0)
(0.111267 0 0)
(0.114079 0 0)
(0.116891 0 0)
(0.119703 0 0)
(0.122514 0 0)
(0.125325 0 0)
(0.128136 0 0)
(0.130946 0 0)
(0.133756 0 0)
(0.136566 0 0)
(0.139375 0 0)
(0.142184 0 0)
(0.144992 0 0)
(0.1478 0 0)
(0.150607 0 0)
(0.153414 0 0)
(0.156221 0 0)
(0.159027 0 0)
(0.161832 0 0)
(0.164637 0 0)
(0.167442 0 0)
(0.170246 0 0)
(0.17305 0 0)
(0.175853 0 0)
(0.178655 0 0)
(0.181458 0 0)
(0.184259 0 0)
(0.18706 0 0)
(0.18986 0 0)
(0.19266 0 0)
(0.195459 0 0)
(0.198258 0 0)
(0.201056 0 0)
(0.203854 0 0)
(0.20665 0 0)
(0.209447 0 0)
(0.212242 0 0)
(0.215037 0 0)
(0.217831 0 0)
(0.220625 0 0)
(0.223418 0 0)
(0.22621 0 0)
(0.229002 0 0)
(0.231793 0 0)
(0.234583 0 0)
(0.237372 0 0)
(0.240161 0 0)
(0.242949 0 0)
(0.245736 0 0)
(0.248523 0 0)
(0.251309 0 0)
(0.254093 0 0)
(0.256878 0 0)
(0.259661 0 0)
(0.262444 0 0)
(0.265225 0 0)
(0.268006 0 0)
(0.270786 0 0)
(0.273566 0 0)
(0.276344 0 0)
(0.279122 0 0)
(0.281898 0 0)
(0.284674 0 0)
(0.287449 0 0)
(0.290223 0 0)
(0.292996 0 0)
(0.295768 0 0)
(0.29854 0 0)
(0.30131 0 0)
(0.304079 0 0)
(0.306847 0 0)
(0.309615 0 0)
(0.312381 0 0)
(0.315147 0 0)
(0.317911 0 0)
(0.320674 0 0)
(0.323437 0 0)
(0.326198 0 0)
(0.328958 0 0)
(0.331718 0 0)
(0.334476 0 0)
(0.337233 0 0)
(0.339989 0 0)
(0.342744 0 0)
(0.345497 0 0)
(0.34825 0 0)
(0.351001 0 0)
(0.353752 0 0)
(0.356501 0 0)
(0.359249 0 0)
(0.361996 0 0)
(0.364741 0 0)
(0.367486 0 0)
(0.370229 0 0)
(0.372971 0 0)
(0.375711 0 0)
(0.378451 0 0)
(0.381189 0 0)
(0.383926 0 0)
(0.386661 0 0)
(0.389396 0 0)
(0.392129 0 0)
(0.39486 0 0)
(0.397591 0 0)
(0.40032 0 0)
(0.403047 0 0)
(0.405773 0 0)
(0.408498 0 0)
(0.411222 0 0)
(0.413944 0 0)
(0.416664 0 0)
(0.419383 0 0)
(0.422101 0 0)
(0.424817 0 0)
(0.427532 0 0)
(0.430245 0 0)
(0.432957 0 0)
(0.435667 0 0)
(0.438376 0 0)
(0.441083 0 0)
(0.443789 0 0)
(0.446492 0 0)
(0.449195 0 0)
(0.451896 0 0)
(0.454595 0 0)
(0.457292 0 0)
(0.459988 0 0)
(0.462682 0 0)
(0.465375 0 0)
(0.468066 0 0)
(0.470755 0 0)
(0.473442 0 0)
(0.476128 0 0)
(0.478812 0 0)
(0.481494 0 0)
(0.484175 0 0)
(0.486853 0 0)
(0.48953 0 0)
(0.492205 0 0)
(0.494878 0 0)
(0.497549 0 0)
(0.500219 0 0)
(0.502886 0 0)
(0.505552 0 0)
(0.508215 0 0)
(0.510877 0 0)
(0.513537 0 0)
(0.516194 0 0)
(0.51885 0 0)
(0.521504 0 0)
(0.524156 0 0)
(0.526805 0 0)
(0.529453 0 0)
(0.532099 0 0)
(0.534742 0 0)
(0.537383 0 0)
(0.540023 0 0)
(0.54266 0 0)
(0.545294 0 0)
(0.547927 0 0)
(0.550558 0 0)
(0.553186 0 0)
(0.555812 0 0)
(0.558436 0 0)
(0.561057 0 0)
(0.563676 0 0)
(0.566293 0 0)
(0.568908 0 0)
(0.57152 0 0)
(0.57413 0 0)
(0.576737 0 0)
(0.579342 0 0)
(0.581945 0 0)
(0.584545 0 0)
(0.587142 0 0)
(0.589737 0 0)
(0.59233 0 0)
(0.59492 0 0)
(0.597507 0 0)
(0.600092 0 0)
(0.602674 0 0)
(0.605254 0 0)
(0.607831 0 0)
(0.610405 0 0)
(0.612976 0 0)
(0.615545 0 0)
(0.618111 0 0)
(0.620674 0 0)
(0.623235 0 0)
(0.625792 0 0)
(0.628347 0 0)
(0.630899 0 0)
(0.633448 0 0)
(0.635994 0 0)
(0.638537 0 0)
(0.641077 0 0)
(0.643614 0 0)
(0.646149 0 0)
(0.64868 0 0)
(0.651208 0 0)
(0.653732 0 0)
(0.656254 0 0)
(0.658773 0 0)
(0.661288 0 0)
(0.6638 0 0)
(0.666309 0 0)
(0.668814 0 0)
(0.671317 0 0)
(0.673816 0 0)
(0.676311 0 0)
(0.678803 0 0)
(0.681292 0 0)
(0.683777 0 0)
(0.686259 0 0)
(0.688737 0 0)
(0.691212 0 0)
(0.693683 0 0)
(0.696151 0 0)
(0.698614 0 0)
(0.701074 0 0)
(0.703531 0 0)
(0.705983 0 0)
(0.708432 0 0)
(0.710877 0 0)
(0.713318 0 0)
(0.715756 0 0)
(0.718189 0 0)
(0.720618 0 0)
(0.723043 0 0)
(0.725465 0 0)
(0.727882 0 0)
(0.730295 0 0)
(0.732703 0 0)
(0.735108 0 0)
(0.737508 0 0)
(0.739905 0 0)
(0.742296 0 0)
(0.744684 0 0)
(0.747067 0 0)
(0.749445 0 0)
(0.751819 0 0)
(0.754188 0 0)
(0.756553 0 0)
(0.758913 0 0)
(0.761269 0 0)
(0.763619 0 0)
(0.765965 0 0)
(0.768307 0 0)
(0.770643 0 0)
(0.772974 0 0)
(0.7753 0 0)
(0.777622 0 0)
(0.779938 0 0)
(0.782249 0 0)
(0.784555 0 0)
(0.786855 0 0)
(0.789151 0 0)
(0.79144 0 0)
(0.793725 0 0)
(0.796004 0 0)
(0.798278 0 0)
(0.800545 0 0)
(0.802808 0 0)
(0.805064 0 0)
(0.807315 0 0)
(0.80956 0 0)
(0.811799 0 0)
(0.814032 0 0)
(0.816259 0 0)
(0.81848 0 0)
(0.820695 0 0)
(0.822903 0 0)
(0.825105 0 0)
(0.827301 0 0)
(0.82949 0 0)
(0.831673 0 0)
(0.833849 0 0)
(0.836019 0 0)
(0.838181 0 0)
(0.840337 0 0)
(0.842486 0 0)
(0.844628 0 0)
(0.846763 0 0)
(0.848891 0 0)
(0.851011 0 0)
(0.853124 0 0)
(0.85523 0 0)
(0.857328 0 0)
(0.859418 0 0)
(0.861501 0 0)
(0.863576 0 0)
(0.865643 0 0)
(0.867701 0 0)
(0.869752 0 0)
(0.871795 0 0)
(0.873829 0 0)
(0.875855 0 0)
(0.877872 0 0)
(0.87988 0 0)
(0.88188 0 0)
(0.883871 0 0)
(0.885852 0 0)
(0.887825 0 0)
(0.889788 0 0)
(0.891742 0 0)
(0.893686 0 0)
(0.895621 0 0)
(0.897546 0 0)
(0.899461 0 0)
(0.901365 0 0)
(0.90326 0 0)
(0.905144 0 0)
(0.907017 0 0)
(0.90888 0 0)
(0.910732 0 0)
(0.912573 0 0)
(0.914403 0 0)
(0.916221 0 0)
(0.918028 0 0)
(0.919823 0 0)
(0.921606 0 0)
(0.923377 0 0)
(0.925135 0 0)
(0.926881 0 0)
(0.928615 0 0)
(0.930335 0 0)
(0.932043 0 0)
(0.933736 0 0)
(0.935417 0 0)
(0.937083 0 0)
(0.938736 0 0)
(0.940374 0 0)
(0.941997 0 0)
(0.943606 0 0)
(0.9452 0 0)
(0.946778 0 0)
(0.94834 0 0)
(0.949887 0 0)
(0.951417 0 0)
(0.952931 0 0)
(0.954428 0 0)
(0.955907 0 0)
(0.957369 0 0)
(0.958813 0 0)
(0.960239 0 0)
(0.961646 0 0)
(0.963034 0 0)
(0.964402 0 0)
(0.965751 0 0)
(0.967079 0 0)
(0.968387 0 0)
(0.969673 0 0)
(0.970938 0 0)
(0.972181 0 0)
(0.9734 0 0)
(0.974599 0 0)
(0.975747 0 0)
(0.977138 0 0)
(0.975897 0 0)
(0.999566 0 0)
(0.601979 0 0)
(-0.60057 0 0)
(-0.999567 0 0)
(-0.975896 0 0)
(-0.977137 0 0)
(-0.975746 0 0)
(-0.974598 0 0)
(-0.973399 0 0)
(-0.97218 0 0)
(-0.970937 0 0)
(-0.969672 0 0)
(-0.968386 0 0)
(-0.967078 0 0)
(-0.96575 0 0)
(-0.964401 0 0)
(-0.963033 0 0)
(-0.961645 0 0)
(-0.960238 0 0)
(-0.958812 0 0)
(-0.957368 0 0)
(-0.955906 0 0)
(-0.954426 0 0)
(-0.952929 0 0)
(-0.951416 0 0)
(-0.949885 0 0)
(-0.948339 0 0)
(-0.946776 0 0)
(-0.945198 0 0)
(-0.943605 0 0)
(-0.941996 0 0)
(-0.940372 0 0)
(-0.938734 0 0)
(-0.937082 0 0)
(-0.935415 0 0)
(-0.933735 0 0)
(-0.932041 0 0)
(-0.930334 0 0)
(-0.928613 0 0)
(-0.92688 0 0)
(-0.925134 0 0)
(-0.923375 0 0)
(-0.921604 0 0)
(-0.919821 0 0)
(-0.918026 0 0)
(-0.916219 0 0)
(-0.914401 0 0)
(-0.912571 0 0)
(-0.91073 0 0)
(-0.908878 0 0)
(-0.907016 0 0)
(-0.905142 0 0)
(-0.903258 0 0)
(-0.901363 0 0)
(-0.899459 0 0)
(-0.897544 0 0)
(-0.895619 0 0)
(-0.893684 0 0)
(-0.89174 0 0)
(-0.889786 0 0)
(-0.887823 0 0)
(-0.88585 0 0)
(-0.883869 0 0)
(-0.881878 0 0)
(-0.879878 0 0)
(-0.87787 0 0)
(-0.875853 0 0)
(-0.873827 0 0)
(-0.871793 0 0)
(-0.86975 0 0)
(-0.867699 0 0)
(-0.86564 0 0)
(-0.863573 0 0)
(-0.861499 0 0)
(-0.859416 0 0)
(-0.857326 0 0)
(-0.855227 0 0)
(-0.853122 0 0)
(-0.851009 0 0)
(-0.848888 0 0)
(-0.846761 0 0)
(-0.844626 0 0)
(-0.842484 0 0)
(-0.840335 0 0)
(-0.838179 0 0)
(-0.836016 0 0)
(-0.833847 0 0)
(-0.831671 0 0)
(-0.829488 0 0)
(-0.827299 0 0)
(-0.825103 0 0)
(-0.822901 0 0)
(-0.820692 0 0)
(-0.818478 0 0)
(-0.816257 0 0)
(-0.81403 0 0)
(-0.811797 0 0)
(-0.809558 0 0)
(-0.807313 0 0)
(-0.805062 0 0)
(-0.802805 0 0)
(-0.800543 0 0)
(-0.798275 0 0)
(-0.796002 0 0)
(-0.793723 0 0)
(-0.791438 0 0)
(-0.789148 0 0)
(-0.786853 0 0)
(-0.784552 0 0)
(-0.782246 0 0)
(-0.779935 0 0)
(-0.777619 0 0)
(-0.775298 0 0)
(-0.772972 0 0)
(-0.77064 0 0)
(-0.768304 0 0)
(-0.765963 0 0)
(-0.763617 0 0)
(-0.761266 0 0)
(-0.758911 0 0)
(-0.756551 0 0)
(-0.754186 0 0)
(-0.751817 0 0)
(-0.749443 0 0)
(-0.747064 0 0)
(-0.744681 0 0)
(-0.742294 0 0)
(-0.739902 0 0)
(-0.737506 0 0)
(-0.735106 0 0)
(-0.732701 0 0)
(-0.730292 0 0)
(-0.727879 0 0)
(-0.725462 0 0)
(-0.723041 0 0)
(-0.720616 0 0)
(-0.718187 0 0)
(-0.715753 0 0)
(-0.713316 0 0)
(-0.710875 0 0)
(-0.70843 0 0)
(-0.705981 0 0)
(-0.703529 0 0)
(-0.701072 0 0)
(-0.698612 0 0)
(-0.696148 0 0)
(-0.693681 0 0)
(-0.69121 0 0)
(-0.688735 0 0)
(-0.686257 0 0)
(-0.683775 0 0)
(-0.68129 0 0)
(-0.678801 0 0)
(-0.676309 0 0)
(-0.673814 0 0)
(-0.671315 0 0)
(-0.668812 0 0)
(-0.666307 0 0)
(-0.663798 0 0)
(-0.661286 0 0)
(-0.658771 0 0)
(-0.656252 0 0)
(-0.65373 0 0)
(-0.651206 0 0)
(-0.648678 0 0)
(-0.646147 0 0)
(-0.643612 0 0)
(-0.641075 0 0)
(-0.638535 0 0)
(-0.635992 0 0)
(-0.633446 0 0)
(-0.630897 0 0)
(-0.628345 0 0)
(-0.62579 0 0)
(-0.623233 0 0)
(-0.620672 0 0)
(-0.618109 0 0)
(-0.615543 0 0)
(-0.612974 0 0)
(-0.610403 0 0)
(-0.607829 0 0)
(-0.605252 0 0)
(-0.602672 0 0)
(-0.60009 0 0)
(-0.597505 0 0)
(-0.594918 0 0)
(-0.592328 0 0)
(-0.589735 0 0)
(-0.58714 0 0)
(-0.584543 0 0)
(-0.581943 0 0)
(-0.57934 0 0)
(-0.576735 0 0)
(-0.574128 0 0)
(-0.571518 0 0)
(-0.568906 0 0)
(-0.566292 0 0)
(-0.563675 0 0)
(-0.561056 0 0)
(-0.558434 0 0)
(-0.55581 0 0)
(-0.553184 0 0)
(-0.550556 0 0)
(-0.547926 0 0)
(-0.545293 0 0)
(-0.542658 0 0)
(-0.540021 0 0)
(-0.537382 0 0)
(-0.53474 0 0)
(-0.532097 0 0)
(-0.529451 0 0)
(-0.526804 0 0)
(-0.524154 0 0)
(-0.521502 0 0)
(-0.518849 0 0)
(-0.516193 0 0)
(-0.513535 0 0)
(-0.510875 0 0)
(-0.508214 0 0)
(-0.50555 0 0)
(-0.502885 0 0)
(-0.500217 0 0)
(-0.497548 0 0)
(-0.494877 0 0)
(-0.492203 0 0)
(-0.489529 0 0)
(-0.486852 0 0)
(-0.484173 0 0)
(-0.481493 0 0)
(-0.478811 0 0)
(-0.476127 0 0)
(-0.473441 0 0)
(-0.470754 0 0)
(-0.468065 0 0)
(-0.465374 0 0)
(-0.462681 0 0)
(-0.459987 0 0)
(-0.457291 0 0)
(-0.454594 0 0)
(-0.451894 0 0)
(-0.449194 0 0)
(-0.446491 0 0)
(-0.443787 0 0)
(-0.441082 0 0)
(-0.438375 0 0)
(-0.435666 0 0)
(-0.432956 0 0)
(-0.430244 0 0)
(-0.427531 0 0)
(-0.424816 0 0)
(-0.4221 0 0)
(-0.419382 0 0)
(-0.416663 0 0)
(-0.413943 0 0)
(-0.411221 0 0)
(-0.408497 0 0)
(-0.405772 0 0)
(-0.403046 0 0)
(-0.400319 0 0)
(-0.39759 0 0)
(-0.394859 0 0)
(-0.392128 0 0)
(-0.389395 0 0)
(-0.386661 0 0)
(-0.383925 0 0)
(-0.381188 0 0)
(-0.37845 0 0)
(-0.375711 0 0)
(-0.37297 0 0)
(-0.370228 0 0)
(-0.367485 0 0)
(-0.36474 0 0)
(-0.361995 0 0)
(-0.359248 0 0)
(-0.3565 0 0)
(-0.353751 0 0)
(-0.351001 0 0)
(-0.348249 0 0)
(-0.345497 0 0)
(-0.342743 0 0)
(-0.339988 0 0)
(-0.337232 0 0)
(-0.334475 0 0)
(-0.331717 0 0)
(-0.328958 0 0)
(-0.326197 0 0)
(-0.323436 0 0)
(-0.320674 0 0)
(-0.31791 0 0)
(-0.315146 0 0)
(-0.312381 0 0)
(-0.309614 0 0)
(-0.306847 0 0)
(-0.304079 0 0)
(-0.301309 0 0)
(-0.298539 0 0)
(-0.295768 0 0)
(-0.292996 0 0)
(-0.290223 0 0)
(-0.287449 0 0)
(-0.284674 0 0)
(-0.281898 0 0)
(-0.279121 0 0)
(-0.276344 0 0)
(-0.273565 0 0)
(-0.270786 0 0)
(-0.268006 0 0)
(-0.265225 0 0)
(-0.262443 0 0)
(-0.259661 0 0)
(-0.256877 0 0)
(-0.254093 0 0)
(-0.251308 0 0)
(-0.248522 0 0)
(-0.245736 0 0)
(-0.242949 0 0)
(-0.240161 0 0)
(-0.237372 0 0)
(-0.234583 0 0)
(-0.231792 0 0)
(-0.229001 0 0)
(-0.22621 0 0)
(-0.223418 0 0)
(-0.220625 0 0)
(-0.217831 0 0)
(-0.215037 0 0)
(-0.212242 0 0)
(-0.209446 0 0)
(-0.20665 0 0)
(-0.203853 0 0)
(-0.201056 0 0)
(-0.198258 0 0)
(-0.195459 0 0)
(-0.19266 0 0)
(-0.18986 0 0)
(-0.18706 0 0)
(-0.184259 0 0)
(-0.181457 0 0)
(-0.178655 0 0)
(-0.175853 0 0)
(-0.17305 0 0)
(-0.170246 0 0)
(-0.167442 0 0)
(-0.164637 0 0)
(-0.161832 0 0)
(-0.159027 0 0)
(-0.156221 0 0)
(-0.153414 0 0)
(-0.150607 0 0)
(-0.1478 0 0)
(-0.144992 0 0)
(-0.142184 0 0)
(-0.139375 0 0)
(-0.136566 0 0)
(-0.133756 0 0)
(-0.130946 0 0)
(-0.128136 0 0)
(-0.125325 0 0)
(-0.122514 0 0)
(-0.119703 0 0)
(-0.116891 0 0)
(-0.114079 0 0)
(-0.111267 0 0)
(-0.108454 0 0)
(-0.105641 0 0)
(-0.102827 0 0)
(-0.100014 0 0)
(-0.0971997 0 0)
(-0.0943854 0 0)
(-0.0915709 0 0)
(-0.0887561 0 0)
(-0.085941 0 0)
(-0.0831257 0 0)
(-0.0803101 0 0)
(-0.0774943 0 0)
(-0.0746783 0 0)
(-0.0718621 0 0)
(-0.0690456 0 0)
(-0.066229 0 0)
(-0.0634121 0 0)
(-0.0605951 0 0)
(-0.0577779 0 0)
(-0.0549605 0 0)
(-0.052143 0 0)
(-0.0493253 0 0)
(-0.0465075 0 0)
(-0.0436895 0 0)
(-0.0408714 0 0)
(-0.0380532 0 0)
(-0.0352349 0 0)
(-0.0324165 0 0)
(-0.029598 0 0)
(-0.0267794 0 0)
(-0.0239607 0 0)
(-0.021142 0 0)
(-0.0183232 0 0)
(-0.0155043 0 0)
(-0.0126854 0 0)
(-0.00986647 0 0)
(-0.0070475 0 0)
(-0.00422851 0 0)
(-0.0014095 0 0)
)
;

boundaryField
{
    left
    {
        type            fixedValue;
        value           uniform (0 0 0);
    }
    right
    {
        type            fixedValue;
        value           uniform (0 0 0);
    }
    frontBackUpDown
    {
        type            empty;
    }
}


// ************************************************************************* //
