/*--------------------------------*- C++ -*----------------------------------*\
| =========                 |                                                 |
| \\      /  F ield         | OpenFOAM: The Open Source CFD Toolbox           |
|  \\    /   O peration     | Version:  2412                                  |
|   \\  /    A nd           | Website:  www.openfoam.com                      |
|    \\/     M anipulation  |                                                 |
\*---------------------------------------------------------------------------*/
FoamFile
{
    version     2.0;
    format      ascii;
    arch        "LSB;label=32;scalar=64";
    class       volVectorField;
    location    "0.23";
    object      U;
}
// * * * * * * * * * * * * * * * * * * * * * * * * * * * * * * * * * * * * * //

dimensions      [0 1 -1 0 0 0 0];

internalField   nonuniform List<vector> 
800
(
(0.00227957 0 0)
(0.00683875 0 0)
(0.0113979 0 0)
(0.0159568 0 0)
(0.0205156 0 0)
(0.0250741 0 0)
(0.0296324 0 0)
(0.0341902 0 0)
(0.0387477 0 0)
(0.0433047 0 0)
(0.0478611 0 0)
(0.052417 0 0)
(0.0569722 0 0)
(0.0615267 0 0)
(0.0660805 0 0)
(0.0706335 0 0)
(0.0751856 0 0)
(0.0797368 0 0)
(0.0842871 0 0)
(0.0888363 0 0)
(0.0933844 0 0)
(0.0979314 0 0)
(0.102477 0 0)
(0.107022 0 0)
(0.111565 0 0)
(0.116107 0 0)
(0.120647 0 0)
(0.125186 0 0)
(0.129724 0 0)
(0.134259 0 0)
(0.138794 0 0)
(0.143326 0 0)
(0.147857 0 0)
(0.152386 0 0)
(0.156913 0 0)
(0.161438 0 0)
(0.165961 0 0)
(0.170482 0 0)
(0.175001 0 0)
(0.179518 0 0)
(0.184032 0 0)
(0.188544 0 0)
(0.193054 0 0)
(0.197562 0 0)
(0.202067 0 0)
(0.206569 0 0)
(0.211069 0 0)
(0.215567 0 0)
(0.220061 0 0)
(0.224553 0 0)
(0.229042 0 0)
(0.233528 0 0)
(0.238012 0 0)
(0.242492 0 0)
(0.246969 0 0)
(0.251443 0 0)
(0.255914 0 0)
(0.260382 0 0)
(0.264846 0 0)
(0.269307 0 0)
(0.273765 0 0)
(0.278219 0 0)
(0.282669 0 0)
(0.287116 0 0)
(0.291559 0 0)
(0.295999 0 0)
(0.300434 0 0)
(0.304866 0 0)
(0.309294 0 0)
(0.313718 0 0)
(0.318138 0 0)
(0.322554 0 0)
(0.326965 0 0)
(0.331372 0 0)
(0.335775 0 0)
(0.340174 0 0)
(0.344568 0 0)
(0.348958 0 0)
(0.353343 0 0)
(0.357723 0 0)
(0.362098 0 0)
(0.366469 0 0)
(0.370835 0 0)
(0.375196 0 0)
(0.379552 0 0)
(0.383903 0 0)
(0.388249 0 0)
(0.39259 0 0)
(0.396925 0 0)
(0.401255 0 0)
(0.40558 0 0)
(0.409899 0 0)
(0.414212 0 0)
(0.41852 0 0)
(0.422822 0 0)
(0.427119 0 0)
(0.431409 0 0)
(0.435694 0 0)
(0.439972 0 0)
(0.444245 0 0)
(0.448511 0 0)
(0.452771 0 0)
(0.457025 0 0)
(0.461272 0 0)
(0.465513 0 0)
(0.469747 0 0)
(0.473975 0 0)
(0.478196 0 0)
(0.48241 0 0)
(0.486618 0 0)
(0.490818 0 0)
(0.495012 0 0)
(0.499198 0 0)
(0.503377 0 0)
(0.507549 0 0)
(0.511713 0 0)
(0.51587 0 0)
(0.52002 0 0)
(0.524161 0 0)
(0.528296 0 0)
(0.532422 0 0)
(0.53654 0 0)
(0.540651 0 0)
(0.544753 0 0)
(0.548847 0 0)
(0.552933 0 0)
(0.557011 0 0)
(0.56108 0 0)
(0.565141 0 0)
(0.569193 0 0)
(0.573237 0 0)
(0.577271 0 0)
(0.581297 0 0)
(0.585314 0 0)
(0.589321 0 0)
(0.59332 0 0)
(0.597309 0 0)
(0.601288 0 0)
(0.605259 0 0)
(0.609219 0 0)
(0.61317 0 0)
(0.617111 0 0)
(0.621043 0 0)
(0.624964 0 0)
(0.628875 0 0)
(0.632776 0 0)
(0.636666 0 0)
(0.640546 0 0)
(0.644416 0 0)
(0.648275 0 0)
(0.652123 0 0)
(0.65596 0 0)
(0.659786 0 0)
(0.663601 0 0)
(0.667405 0 0)
(0.671197 0 0)
(0.674978 0 0)
(0.678748 0 0)
(0.682505 0 0)
(0.686251 0 0)
(0.689985 0 0)
(0.693706 0 0)
(0.697416 0 0)
(0.701113 0 0)
(0.704798 0 0)
(0.70847 0 0)
(0.712129 0 0)
(0.715775 0 0)
(0.719408 0 0)
(0.723029 0 0)
(0.726635 0 0)
(0.730229 0 0)
(0.733809 0 0)
(0.737375 0 0)
(0.740927 0 0)
(0.744465 0 0)
(0.747989 0 0)
(0.751499 0 0)
(0.754994 0 0)
(0.758475 0 0)
(0.761941 0 0)
(0.765392 0 0)
(0.768828 0 0)
(0.772249 0 0)
(0.775654 0 0)
(0.779044 0 0)
(0.782417 0 0)
(0.785775 0 0)
(0.789117 0 0)
(0.792443 0 0)
(0.795752 0 0)
(0.799045 0 0)
(0.802321 0 0)
(0.80558 0 0)
(0.808822 0 0)
(0.812046 0 0)
(0.815253 0 0)
(0.818442 0 0)
(0.821613 0 0)
(0.824766 0 0)
(0.827901 0 0)
(0.831018 0 0)
(0.834115 0 0)
(0.837194 0 0)
(0.840254 0 0)
(0.843294 0 0)
(0.846315 0 0)
(0.849316 0 0)
(0.852297 0 0)
(0.855257 0 0)
(0.858198 0 0)
(0.861117 0 0)
(0.864016 0 0)
(0.866894 0 0)
(0.86975 0 0)
(0.872584 0 0)
(0.875397 0 0)
(0.878188 0 0)
(0.880956 0 0)
(0.883701 0 0)
(0.886424 0 0)
(0.889123 0 0)
(0.891799 0 0)
(0.894452 0 0)
(0.89708 0 0)
(0.899684 0 0)
(0.902264 0 0)
(0.904818 0 0)
(0.907348 0 0)
(0.909852 0 0)
(0.91233 0 0)
(0.914782 0 0)
(0.917208 0 0)
(0.919607 0 0)
(0.921979 0 0)
(0.924323 0 0)
(0.92664 0 0)
(0.928929 0 0)
(0.931189 0 0)
(0.933421 0 0)
(0.935624 0 0)
(0.937797 0 0)
(0.93994 0 0)
(0.942053 0 0)
(0.944135 0 0)
(0.946187 0 0)
(0.948206 0 0)
(0.950195 0 0)
(0.95215 0 0)
(0.954073 0 0)
(0.955964 0 0)
(0.95782 0 0)
(0.959643 0 0)
(0.961431 0 0)
(0.963184 0 0)
(0.964902 0 0)
(0.966584 0 0)
(0.968229 0 0)
(0.969838 0 0)
(0.971409 0 0)
(0.972943 0 0)
(0.974438 0 0)
(0.975894 0 0)
(0.977311 0 0)
(0.978688 0 0)
(0.980024 0 0)
(0.981319 0 0)
(0.982572 0 0)
(0.983782 0 0)
(0.98495 0 0)
(0.986074 0 0)
(0.987153 0 0)
(0.988188 0 0)
(0.989177 0 0)
(0.990119 0 0)
(0.991015 0 0)
(0.991862 0 0)
(0.992662 0 0)
(0.993412 0 0)
(0.994111 0 0)
(0.994761 0 0)
(0.995358 0 0)
(0.995903 0 0)
(0.996395 0 0)
(0.996832 0 0)
(0.997215 0 0)
(0.997541 0 0)
(0.997811 0 0)
(0.998022 0 0)
(0.998175 0 0)
(0.998268 0 0)
(0.998301 0 0)
(0.998271 0 0)
(0.998179 0 0)
(0.998022 0 0)
(0.9978 0 0)
(0.997512 0 0)
(0.997157 0 0)
(0.996732 0 0)
(0.996238 0 0)
(0.995672 0 0)
(0.995034 0 0)
(0.994322 0 0)
(0.993534 0 0)
(0.99267 0 0)
(0.991728 0 0)
(0.990705 0 0)
(0.989602 0 0)
(0.988415 0 0)
(0.987144 0 0)
(0.985787 0 0)
(0.984342 0 0)
(0.982806 0 0)
(0.98118 0 0)
(0.979459 0 0)
(0.977644 0 0)
(0.97573 0 0)
(0.973717 0 0)
(0.971603 0 0)
(0.969384 0 0)
(0.967059 0 0)
(0.964625 0 0)
(0.962081 0 0)
(0.959422 0 0)
(0.956648 0 0)
(0.953754 0 0)
(0.950739 0 0)
(0.9476 0 0)
(0.944333 0 0)
(0.940935 0 0)
(0.937403 0 0)
(0.933735 0 0)
(0.929925 0 0)
(0.925972 0 0)
(0.921871 0 0)
(0.917619 0 0)
(0.913211 0 0)
(0.908643 0 0)
(0.903912 0 0)
(0.899013 0 0)
(0.893941 0 0)
(0.888691 0 0)
(0.883259 0 0)
(0.87764 0 0)
(0.871828 0 0)
(0.865817 0 0)
(0.859602 0 0)
(0.853178 0 0)
(0.846537 0 0)
(0.839673 0 0)
(0.83258 0 0)
(0.825251 0 0)
(0.817677 0 0)
(0.809853 0 0)
(0.80177 0 0)
(0.793419 0 0)
(0.784793 0 0)
(0.775883 0 0)
(0.766678 0 0)
(0.757171 0 0)
(0.74735 0 0)
(0.737206 0 0)
(0.726728 0 0)
(0.715905 0 0)
(0.704725 0 0)
(0.693178 0 0)
(0.68125 0 0)
(0.66893 0 0)
(0.656204 0 0)
(0.643059 0 0)
(0.629483 0 0)
(0.615461 0 0)
(0.600981 0 0)
(0.586027 0 0)
(0.570587 0 0)
(0.554647 0 0)
(0.538193 0 0)
(0.521214 0 0)
(0.503696 0 0)
(0.485628 0 0)
(0.467002 0 0)
(0.447807 0 0)
(0.428037 0 0)
(0.407687 0 0)
(0.386755 0 0)
(0.365242 0 0)
(0.343151 0 0)
(0.320492 0 0)
(0.297275 0 0)
(0.273517 0 0)
(0.24924 0 0)
(0.224472 0 0)
(0.199243 0 0)
(0.173593 0 0)
(0.147564 0 0)
(0.121204 0 0)
(0.0945662 0 0)
(0.067708 0 0)
(0.0406897 0 0)
(0.0135743 0 0)
(-0.0135736 0 0)
(-0.0406889 0 0)
(-0.0677071 0 0)
(-0.094565 0 0)
(-0.121202 0 0)
(-0.147562 0 0)
(-0.17359 0 0)
(-0.19924 0 0)
(-0.224468 0 0)
(-0.249236 0 0)
(-0.273512 0 0)
(-0.297269 0 0)
(-0.320486 0 0)
(-0.343145 0 0)
(-0.365235 0 0)
(-0.386748 0 0)
(-0.407679 0 0)
(-0.428028 0 0)
(-0.447798 0 0)
(-0.466993 0 0)
(-0.485619 0 0)
(-0.503686 0 0)
(-0.521204 0 0)
(-0.538183 0 0)
(-0.554637 0 0)
(-0.570577 0 0)
(-0.586017 0 0)
(-0.600971 0 0)
(-0.615452 0 0)
(-0.629474 0 0)
(-0.64305 0 0)
(-0.656195 0 0)
(-0.668921 0 0)
(-0.681241 0 0)
(-0.693169 0 0)
(-0.704717 0 0)
(-0.715896 0 0)
(-0.72672 0 0)
(-0.737198 0 0)
(-0.747342 0 0)
(-0.757163 0 0)
(-0.766671 0 0)
(-0.775875 0 0)
(-0.784786 0 0)
(-0.793413 0 0)
(-0.801763 0 0)
(-0.809847 0 0)
(-0.817671 0 0)
(-0.825245 0 0)
(-0.832574 0 0)
(-0.839668 0 0)
(-0.846531 0 0)
(-0.853173 0 0)
(-0.859598 0 0)
(-0.865812 0 0)
(-0.871823 0 0)
(-0.877636 0 0)
(-0.883255 0 0)
(-0.888687 0 0)
(-0.893937 0 0)
(-0.89901 0 0)
(-0.903909 0 0)
(-0.90864 0 0)
(-0.913208 0 0)
(-0.917616 0 0)
(-0.921869 0 0)
(-0.92597 0 0)
(-0.929923 0 0)
(-0.933732 0 0)
(-0.937401 0 0)
(-0.940933 0 0)
(-0.944331 0 0)
(-0.947598 0 0)
(-0.950738 0 0)
(-0.953753 0 0)
(-0.956647 0 0)
(-0.959421 0 0)
(-0.96208 0 0)
(-0.964624 0 0)
(-0.967058 0 0)
(-0.969383 0 0)
(-0.971602 0 0)
(-0.973717 0 0)
(-0.97573 0 0)
(-0.977643 0 0)
(-0.979459 0 0)
(-0.981179 0 0)
(-0.982806 0 0)
(-0.984341 0 0)
(-0.985787 0 0)
(-0.987144 0 0)
(-0.988415 0 0)
(-0.989602 0 0)
(-0.990705 0 0)
(-0.991727 0 0)
(-0.99267 0 0)
(-0.993534 0 0)
(-0.994322 0 0)
(-0.995034 0 0)
(-0.995672 0 0)
(-0.996238 0 0)
(-0.996732 0 0)
(-0.997157 0 0)
(-0.997512 0 0)
(-0.9978 0 0)
(-0.998022 0 0)
(-0.998179 0 0)
(-0.998271 0 0)
(-0.998301 0 0)
(-0.998268 0 0)
(-0.998175 0 0)
(-0.998022 0 0)
(-0.997811 0 0)
(-0.997541 0 0)
(-0.997214 0 0)
(-0.996832 0 0)
(-0.996395 0 0)
(-0.995903 0 0)
(-0.995358 0 0)
(-0.99476 0 0)
(-0.994111 0 0)
(-0.993411 0 0)
(-0.992661 0 0)
(-0.991862 0 0)
(-0.991015 0 0)
(-0.990119 0 0)
(-0.989176 0 0)
(-0.988187 0 0)
(-0.987153 0 0)
(-0.986073 0 0)
(-0.984949 0 0)
(-0.983782 0 0)
(-0.982571 0 0)
(-0.981318 0 0)
(-0.980023 0 0)
(-0.978687 0 0)
(-0.977311 0 0)
(-0.975894 0 0)
(-0.974438 0 0)
(-0.972942 0 0)
(-0.971409 0 0)
(-0.969837 0 0)
(-0.968229 0 0)
(-0.966583 0 0)
(-0.964901 0 0)
(-0.963183 0 0)
(-0.96143 0 0)
(-0.959642 0 0)
(-0.957819 0 0)
(-0.955963 0 0)
(-0.954073 0 0)
(-0.95215 0 0)
(-0.950194 0 0)
(-0.948206 0 0)
(-0.946186 0 0)
(-0.944134 0 0)
(-0.942052 0 0)
(-0.939939 0 0)
(-0.937796 0 0)
(-0.935623 0 0)
(-0.93342 0 0)
(-0.931188 0 0)
(-0.928928 0 0)
(-0.926639 0 0)
(-0.924322 0 0)
(-0.921978 0 0)
(-0.919606 0 0)
(-0.917207 0 0)
(-0.914781 0 0)
(-0.912329 0 0)
(-0.90985 0 0)
(-0.907346 0 0)
(-0.904817 0 0)
(-0.902262 0 0)
(-0.899683 0 0)
(-0.897079 0 0)
(-0.89445 0 0)
(-0.891798 0 0)
(-0.889122 0 0)
(-0.886423 0 0)
(-0.8837 0 0)
(-0.880954 0 0)
(-0.878186 0 0)
(-0.875396 0 0)
(-0.872583 0 0)
(-0.869748 0 0)
(-0.866892 0 0)
(-0.864015 0 0)
(-0.861116 0 0)
(-0.858196 0 0)
(-0.855256 0 0)
(-0.852295 0 0)
(-0.849314 0 0)
(-0.846313 0 0)
(-0.843292 0 0)
(-0.840252 0 0)
(-0.837192 0 0)
(-0.834114 0 0)
(-0.831016 0 0)
(-0.8279 0 0)
(-0.824765 0 0)
(-0.821612 0 0)
(-0.81844 0 0)
(-0.815251 0 0)
(-0.812044 0 0)
(-0.80882 0 0)
(-0.805578 0 0)
(-0.802319 0 0)
(-0.799043 0 0)
(-0.795751 0 0)
(-0.792441 0 0)
(-0.789116 0 0)
(-0.785774 0 0)
(-0.782416 0 0)
(-0.779042 0 0)
(-0.775652 0 0)
(-0.772247 0 0)
(-0.768826 0 0)
(-0.76539 0 0)
(-0.761939 0 0)
(-0.758473 0 0)
(-0.754993 0 0)
(-0.751497 0 0)
(-0.747988 0 0)
(-0.744464 0 0)
(-0.740925 0 0)
(-0.737373 0 0)
(-0.733807 0 0)
(-0.730227 0 0)
(-0.726634 0 0)
(-0.723027 0 0)
(-0.719407 0 0)
(-0.715773 0 0)
(-0.712127 0 0)
(-0.708468 0 0)
(-0.704796 0 0)
(-0.701111 0 0)
(-0.697414 0 0)
(-0.693705 0 0)
(-0.689983 0 0)
(-0.686249 0 0)
(-0.682504 0 0)
(-0.678746 0 0)
(-0.674977 0 0)
(-0.671196 0 0)
(-0.667403 0 0)
(-0.6636 0 0)
(-0.659785 0 0)
(-0.655958 0 0)
(-0.652121 0 0)
(-0.648273 0 0)
(-0.644414 0 0)
(-0.640545 0 0)
(-0.636665 0 0)
(-0.632774 0 0)
(-0.628873 0 0)
(-0.624962 0 0)
(-0.621041 0 0)
(-0.61711 0 0)
(-0.613169 0 0)
(-0.609218 0 0)
(-0.605257 0 0)
(-0.601287 0 0)
(-0.597307 0 0)
(-0.593318 0 0)
(-0.58932 0 0)
(-0.585312 0 0)
(-0.581295 0 0)
(-0.57727 0 0)
(-0.573235 0 0)
(-0.569192 0 0)
(-0.56514 0 0)
(-0.561079 0 0)
(-0.55701 0 0)
(-0.552932 0 0)
(-0.548846 0 0)
(-0.544752 0 0)
(-0.540649 0 0)
(-0.536539 0 0)
(-0.532421 0 0)
(-0.528294 0 0)
(-0.52416 0 0)
(-0.520018 0 0)
(-0.515869 0 0)
(-0.511712 0 0)
(-0.507548 0 0)
(-0.503376 0 0)
(-0.499197 0 0)
(-0.49501 0 0)
(-0.490817 0 0)
(-0.486617 0 0)
(-0.482409 0 0)
(-0.478195 0 0)
(-0.473974 0 0)
(-0.469746 0 0)
(-0.465512 0 0)
(-0.461271 0 0)
(-0.457024 0 0)
(-0.45277 0 0)
(-0.44851 0 0)
(-0.444244 0 0)
(-0.439971 0 0)
(-0.435693 0 0)
(-0.431408 0 0)
(-0.427118 0 0)
(-0.422821 0 0)
(-0.418519 0 0)
(-0.414211 0 0)
(-0.409898 0 0)
(-0.405579 0 0)
(-0.401254 0 0)
(-0.396924 0 0)
(-0.392589 0 0)
(-0.388248 0 0)
(-0.383903 0 0)
(-0.379552 0 0)
(-0.375196 0 0)
(-0.370835 0 0)
(-0.366469 0 0)
(-0.362098 0 0)
(-0.357722 0 0)
(-0.353342 0 0)
(-0.348957 0 0)
(-0.344567 0 0)
(-0.340173 0 0)
(-0.335775 0 0)
(-0.331372 0 0)
(-0.326965 0 0)
(-0.322553 0 0)
(-0.318137 0 0)
(-0.313718 0 0)
(-0.309294 0 0)
(-0.304866 0 0)
(-0.300434 0 0)
(-0.295998 0 0)
(-0.291559 0 0)
(-0.287116 0 0)
(-0.282669 0 0)
(-0.278218 0 0)
(-0.273764 0 0)
(-0.269307 0 0)
(-0.264846 0 0)
(-0.260381 0 0)
(-0.255914 0 0)
(-0.251443 0 0)
(-0.246969 0 0)
(-0.242492 0 0)
(-0.238011 0 0)
(-0.233528 0 0)
(-0.229042 0 0)
(-0.224553 0 0)
(-0.220061 0 0)
(-0.215566 0 0)
(-0.211069 0 0)
(-0.206569 0 0)
(-0.202067 0 0)
(-0.197562 0 0)
(-0.193054 0 0)
(-0.188544 0 0)
(-0.184032 0 0)
(-0.179517 0 0)
(-0.175001 0 0)
(-0.170482 0 0)
(-0.165961 0 0)
(-0.161438 0 0)
(-0.156913 0 0)
(-0.152386 0 0)
(-0.147857 0 0)
(-0.143326 0 0)
(-0.138793 0 0)
(-0.134259 0 0)
(-0.129723 0 0)
(-0.125186 0 0)
(-0.120647 0 0)
(-0.116107 0 0)
(-0.111565 0 0)
(-0.107022 0 0)
(-0.102477 0 0)
(-0.0979313 0 0)
(-0.0933844 0 0)
(-0.0888362 0 0)
(-0.084287 0 0)
(-0.0797368 0 0)
(-0.0751856 0 0)
(-0.0706335 0 0)
(-0.0660805 0 0)
(-0.0615267 0 0)
(-0.0569722 0 0)
(-0.052417 0 0)
(-0.0478611 0 0)
(-0.0433047 0 0)
(-0.0387477 0 0)
(-0.0341903 0 0)
(-0.0296324 0 0)
(-0.0250742 0 0)
(-0.0205156 0 0)
(-0.0159569 0 0)
(-0.0113979 0 0)
(-0.0068388 0 0)
(-0.00227961 0 0)
)
;

boundaryField
{
    left
    {
        type            fixedValue;
        value           uniform (0 0 0);
    }
    right
    {
        type            fixedValue;
        value           uniform (0 0 0);
    }
    frontBackUpDown
    {
        type            empty;
    }
}


// ************************************************************************* //
