/*--------------------------------*- C++ -*----------------------------------*\
| =========                 |                                                 |
| \\      /  F ield         | OpenFOAM: The Open Source CFD Toolbox           |
|  \\    /   O peration     | Version:  2412                                  |
|   \\  /    A nd           | Website:  www.openfoam.com                      |
|    \\/     M anipulation  |                                                 |
\*---------------------------------------------------------------------------*/
FoamFile
{
    version     2.0;
    format      ascii;
    arch        "LSB;label=32;scalar=64";
    class       volVectorField;
    location    "0.23";
    object      U_0;
}
// * * * * * * * * * * * * * * * * * * * * * * * * * * * * * * * * * * * * * //

dimensions      [0 1 -1 0 0 0 0];

internalField   nonuniform List<vector> 
800
(
(0.00228165 0 0)
(0.00684499 0 0)
(0.0114083 0 0)
(0.0159714 0 0)
(0.0205343 0 0)
(0.025097 0 0)
(0.0296594 0 0)
(0.0342214 0 0)
(0.038783 0 0)
(0.0433441 0 0)
(0.0479047 0 0)
(0.0524647 0 0)
(0.0570241 0 0)
(0.0615828 0 0)
(0.0661407 0 0)
(0.0706978 0 0)
(0.0752541 0 0)
(0.0798094 0 0)
(0.0843638 0 0)
(0.0889171 0 0)
(0.0934693 0 0)
(0.0980204 0 0)
(0.10257 0 0)
(0.107119 0 0)
(0.111666 0 0)
(0.116212 0 0)
(0.120757 0 0)
(0.1253 0 0)
(0.129841 0 0)
(0.134381 0 0)
(0.138919 0 0)
(0.143456 0 0)
(0.147991 0 0)
(0.152524 0 0)
(0.157055 0 0)
(0.161584 0 0)
(0.166111 0 0)
(0.170636 0 0)
(0.175159 0 0)
(0.17968 0 0)
(0.184198 0 0)
(0.188714 0 0)
(0.193228 0 0)
(0.19774 0 0)
(0.202249 0 0)
(0.206755 0 0)
(0.211259 0 0)
(0.21576 0 0)
(0.220259 0 0)
(0.224755 0 0)
(0.229248 0 0)
(0.233738 0 0)
(0.238225 0 0)
(0.242709 0 0)
(0.24719 0 0)
(0.251668 0 0)
(0.256143 0 0)
(0.260614 0 0)
(0.265082 0 0)
(0.269547 0 0)
(0.274009 0 0)
(0.278466 0 0)
(0.282921 0 0)
(0.287371 0 0)
(0.291818 0 0)
(0.296261 0 0)
(0.300701 0 0)
(0.305136 0 0)
(0.309568 0 0)
(0.313996 0 0)
(0.318419 0 0)
(0.322838 0 0)
(0.327253 0 0)
(0.331664 0 0)
(0.336071 0 0)
(0.340473 0 0)
(0.344871 0 0)
(0.349264 0 0)
(0.353652 0 0)
(0.358036 0 0)
(0.362415 0 0)
(0.366789 0 0)
(0.371159 0 0)
(0.375523 0 0)
(0.379883 0 0)
(0.384237 0 0)
(0.388586 0 0)
(0.39293 0 0)
(0.397269 0 0)
(0.401602 0 0)
(0.40593 0 0)
(0.410253 0 0)
(0.414569 0 0)
(0.41888 0 0)
(0.423186 0 0)
(0.427485 0 0)
(0.431779 0 0)
(0.436067 0 0)
(0.440349 0 0)
(0.444624 0 0)
(0.448894 0 0)
(0.453157 0 0)
(0.457413 0 0)
(0.461664 0 0)
(0.465908 0 0)
(0.470145 0 0)
(0.474376 0 0)
(0.4786 0 0)
(0.482817 0 0)
(0.487027 0 0)
(0.49123 0 0)
(0.495427 0 0)
(0.499616 0 0)
(0.503797 0 0)
(0.507972 0 0)
(0.512139 0 0)
(0.516299 0 0)
(0.520451 0 0)
(0.524595 0 0)
(0.528732 0 0)
(0.532861 0 0)
(0.536982 0 0)
(0.541095 0 0)
(0.5452 0 0)
(0.549296 0 0)
(0.553385 0 0)
(0.557465 0 0)
(0.561537 0 0)
(0.5656 0 0)
(0.569654 0 0)
(0.5737 0 0)
(0.577737 0 0)
(0.581765 0 0)
(0.585783 0 0)
(0.589793 0 0)
(0.593794 0 0)
(0.597785 0 0)
(0.601767 0 0)
(0.605739 0 0)
(0.609701 0 0)
(0.613654 0 0)
(0.617597 0 0)
(0.62153 0 0)
(0.625454 0 0)
(0.629366 0 0)
(0.633269 0 0)
(0.637161 0 0)
(0.641043 0 0)
(0.644914 0 0)
(0.648775 0 0)
(0.652624 0 0)
(0.656463 0 0)
(0.660291 0 0)
(0.664107 0 0)
(0.667912 0 0)
(0.671706 0 0)
(0.675488 0 0)
(0.679259 0 0)
(0.683018 0 0)
(0.686765 0 0)
(0.690499 0 0)
(0.694222 0 0)
(0.697933 0 0)
(0.701631 0 0)
(0.705316 0 0)
(0.708989 0 0)
(0.712649 0 0)
(0.716296 0 0)
(0.719931 0 0)
(0.723551 0 0)
(0.727159 0 0)
(0.730753 0 0)
(0.734333 0 0)
(0.7379 0 0)
(0.741453 0 0)
(0.744991 0 0)
(0.748516 0 0)
(0.752026 0 0)
(0.755522 0 0)
(0.759002 0 0)
(0.762469 0 0)
(0.76592 0 0)
(0.769356 0 0)
(0.772776 0 0)
(0.776181 0 0)
(0.779571 0 0)
(0.782945 0 0)
(0.786302 0 0)
(0.789644 0 0)
(0.792969 0 0)
(0.796278 0 0)
(0.79957 0 0)
(0.802846 0 0)
(0.806104 0 0)
(0.809345 0 0)
(0.812569 0 0)
(0.815775 0 0)
(0.818963 0 0)
(0.822133 0 0)
(0.825286 0 0)
(0.828419 0 0)
(0.831535 0 0)
(0.834631 0 0)
(0.837709 0 0)
(0.840767 0 0)
(0.843806 0 0)
(0.846825 0 0)
(0.849824 0 0)
(0.852804 0 0)
(0.855763 0 0)
(0.858701 0 0)
(0.861619 0 0)
(0.864516 0 0)
(0.867391 0 0)
(0.870245 0 0)
(0.873078 0 0)
(0.875888 0 0)
(0.878676 0 0)
(0.881442 0 0)
(0.884185 0 0)
(0.886905 0 0)
(0.889602 0 0)
(0.892275 0 0)
(0.894925 0 0)
(0.89755 0 0)
(0.900151 0 0)
(0.902727 0 0)
(0.905279 0 0)
(0.907805 0 0)
(0.910306 0 0)
(0.91278 0 0)
(0.915229 0 0)
(0.917651 0 0)
(0.920046 0 0)
(0.922414 0 0)
(0.924755 0 0)
(0.927068 0 0)
(0.929352 0 0)
(0.931609 0 0)
(0.933836 0 0)
(0.936034 0 0)
(0.938202 0 0)
(0.940341 0 0)
(0.942449 0 0)
(0.944527 0 0)
(0.946573 0 0)
(0.948588 0 0)
(0.95057 0 0)
(0.952521 0 0)
(0.954438 0 0)
(0.956323 0 0)
(0.958174 0 0)
(0.95999 0 0)
(0.961772 0 0)
(0.963519 0 0)
(0.965231 0 0)
(0.966906 0 0)
(0.968546 0 0)
(0.970148 0 0)
(0.971712 0 0)
(0.973239 0 0)
(0.974727 0 0)
(0.976176 0 0)
(0.977585 0 0)
(0.978955 0 0)
(0.980283 0 0)
(0.98157 0 0)
(0.982815 0 0)
(0.984018 0 0)
(0.985177 0 0)
(0.986292 0 0)
(0.987363 0 0)
(0.988389 0 0)
(0.989369 0 0)
(0.990303 0 0)
(0.991189 0 0)
(0.992028 0 0)
(0.992817 0 0)
(0.993557 0 0)
(0.994247 0 0)
(0.994886 0 0)
(0.995474 0 0)
(0.996008 0 0)
(0.996489 0 0)
(0.996916 0 0)
(0.997287 0 0)
(0.997603 0 0)
(0.997861 0 0)
(0.998061 0 0)
(0.998202 0 0)
(0.998283 0 0)
(0.998303 0 0)
(0.998262 0 0)
(0.998156 0 0)
(0.997987 0 0)
(0.997752 0 0)
(0.997451 0 0)
(0.997082 0 0)
(0.996644 0 0)
(0.996135 0 0)
(0.995556 0 0)
(0.994903 0 0)
(0.994176 0 0)
(0.993374 0 0)
(0.992494 0 0)
(0.991537 0 0)
(0.990499 0 0)
(0.989379 0 0)
(0.988176 0 0)
(0.986889 0 0)
(0.985515 0 0)
(0.984053 0 0)
(0.9825 0 0)
(0.980856 0 0)
(0.979118 0 0)
(0.977284 0 0)
(0.975352 0 0)
(0.973321 0 0)
(0.971187 0 0)
(0.968949 0 0)
(0.966605 0 0)
(0.964151 0 0)
(0.961587 0 0)
(0.958908 0 0)
(0.956113 0 0)
(0.953198 0 0)
(0.950162 0 0)
(0.947 0 0)
(0.943711 0 0)
(0.940291 0 0)
(0.936737 0 0)
(0.933045 0 0)
(0.929213 0 0)
(0.925236 0 0)
(0.921111 0 0)
(0.916834 0 0)
(0.912402 0 0)
(0.90781 0 0)
(0.903053 0 0)
(0.898128 0 0)
(0.89303 0 0)
(0.887755 0 0)
(0.882297 0 0)
(0.87665 0 0)
(0.870811 0 0)
(0.864774 0 0)
(0.858531 0 0)
(0.852079 0 0)
(0.84541 0 0)
(0.838519 0 0)
(0.831398 0 0)
(0.82404 0 0)
(0.816439 0 0)
(0.808586 0 0)
(0.800474 0 0)
(0.792095 0 0)
(0.783441 0 0)
(0.774502 0 0)
(0.765269 0 0)
(0.755734 0 0)
(0.745886 0 0)
(0.735715 0 0)
(0.725211 0 0)
(0.714362 0 0)
(0.703157 0 0)
(0.691585 0 0)
(0.679635 0 0)
(0.667292 0 0)
(0.654546 0 0)
(0.641382 0 0)
(0.627789 0 0)
(0.613751 0 0)
(0.599258 0 0)
(0.584294 0 0)
(0.568846 0 0)
(0.552901 0 0)
(0.536446 0 0)
(0.51947 0 0)
(0.501959 0 0)
(0.483904 0 0)
(0.465294 0 0)
(0.446121 0 0)
(0.42638 0 0)
(0.406065 0 0)
(0.385175 0 0)
(0.36371 0 0)
(0.341676 0 0)
(0.319081 0 0)
(0.295936 0 0)
(0.272259 0 0)
(0.248071 0 0)
(0.223399 0 0)
(0.198276 0 0)
(0.172737 0 0)
(0.146827 0 0)
(0.120592 0 0)
(0.0940845 0 0)
(0.0673608 0 0)
(0.0404801 0 0)
(0.0135042 0 0)
(-0.0135035 0 0)
(-0.0404794 0 0)
(-0.0673599 0 0)
(-0.0940833 0 0)
(-0.12059 0 0)
(-0.146825 0 0)
(-0.172735 0 0)
(-0.198273 0 0)
(-0.223396 0 0)
(-0.248067 0 0)
(-0.272254 0 0)
(-0.295931 0 0)
(-0.319075 0 0)
(-0.34167 0 0)
(-0.363703 0 0)
(-0.385167 0 0)
(-0.406057 0 0)
(-0.426372 0 0)
(-0.446113 0 0)
(-0.465285 0 0)
(-0.483895 0 0)
(-0.50195 0 0)
(-0.51946 0 0)
(-0.536437 0 0)
(-0.552891 0 0)
(-0.568836 0 0)
(-0.584284 0 0)
(-0.599248 0 0)
(-0.613742 0 0)
(-0.627779 0 0)
(-0.641373 0 0)
(-0.654536 0 0)
(-0.667283 0 0)
(-0.679625 0 0)
(-0.691577 0 0)
(-0.703148 0 0)
(-0.714353 0 0)
(-0.725202 0 0)
(-0.735707 0 0)
(-0.745878 0 0)
(-0.755726 0 0)
(-0.765262 0 0)
(-0.774495 0 0)
(-0.783434 0 0)
(-0.792089 0 0)
(-0.800468 0 0)
(-0.80858 0 0)
(-0.816432 0 0)
(-0.824034 0 0)
(-0.831392 0 0)
(-0.838513 0 0)
(-0.845405 0 0)
(-0.852074 0 0)
(-0.858527 0 0)
(-0.864769 0 0)
(-0.870807 0 0)
(-0.876646 0 0)
(-0.882293 0 0)
(-0.887751 0 0)
(-0.893027 0 0)
(-0.898125 0 0)
(-0.90305 0 0)
(-0.907806 0 0)
(-0.912399 0 0)
(-0.916832 0 0)
(-0.921108 0 0)
(-0.925233 0 0)
(-0.92921 0 0)
(-0.933043 0 0)
(-0.936735 0 0)
(-0.940289 0 0)
(-0.943709 0 0)
(-0.946999 0 0)
(-0.95016 0 0)
(-0.953197 0 0)
(-0.956111 0 0)
(-0.958906 0 0)
(-0.961585 0 0)
(-0.96415 0 0)
(-0.966604 0 0)
(-0.968948 0 0)
(-0.971186 0 0)
(-0.97332 0 0)
(-0.975352 0 0)
(-0.977283 0 0)
(-0.979117 0 0)
(-0.980856 0 0)
(-0.9825 0 0)
(-0.984052 0 0)
(-0.985515 0 0)
(-0.986889 0 0)
(-0.988176 0 0)
(-0.989379 0 0)
(-0.990498 0 0)
(-0.991536 0 0)
(-0.992494 0 0)
(-0.993374 0 0)
(-0.994176 0 0)
(-0.994903 0 0)
(-0.995556 0 0)
(-0.996135 0 0)
(-0.996644 0 0)
(-0.997082 0 0)
(-0.997451 0 0)
(-0.997752 0 0)
(-0.997987 0 0)
(-0.998156 0 0)
(-0.998262 0 0)
(-0.998303 0 0)
(-0.998283 0 0)
(-0.998202 0 0)
(-0.998061 0 0)
(-0.997861 0 0)
(-0.997603 0 0)
(-0.997287 0 0)
(-0.996916 0 0)
(-0.996489 0 0)
(-0.996008 0 0)
(-0.995474 0 0)
(-0.994886 0 0)
(-0.994247 0 0)
(-0.993557 0 0)
(-0.992817 0 0)
(-0.992027 0 0)
(-0.991189 0 0)
(-0.990303 0 0)
(-0.989369 0 0)
(-0.988389 0 0)
(-0.987363 0 0)
(-0.986292 0 0)
(-0.985177 0 0)
(-0.984017 0 0)
(-0.982815 0 0)
(-0.98157 0 0)
(-0.980283 0 0)
(-0.978954 0 0)
(-0.977585 0 0)
(-0.976176 0 0)
(-0.974727 0 0)
(-0.973238 0 0)
(-0.971712 0 0)
(-0.970147 0 0)
(-0.968545 0 0)
(-0.966906 0 0)
(-0.96523 0 0)
(-0.963519 0 0)
(-0.961772 0 0)
(-0.959989 0 0)
(-0.958173 0 0)
(-0.956322 0 0)
(-0.954438 0 0)
(-0.95252 0 0)
(-0.95057 0 0)
(-0.948587 0 0)
(-0.946572 0 0)
(-0.944526 0 0)
(-0.942448 0 0)
(-0.94034 0 0)
(-0.938202 0 0)
(-0.936033 0 0)
(-0.933835 0 0)
(-0.931608 0 0)
(-0.929351 0 0)
(-0.927067 0 0)
(-0.924754 0 0)
(-0.922413 0 0)
(-0.920045 0 0)
(-0.91765 0 0)
(-0.915228 0 0)
(-0.912779 0 0)
(-0.910304 0 0)
(-0.907804 0 0)
(-0.905278 0 0)
(-0.902726 0 0)
(-0.90015 0 0)
(-0.897549 0 0)
(-0.894923 0 0)
(-0.892274 0 0)
(-0.889601 0 0)
(-0.886904 0 0)
(-0.884184 0 0)
(-0.881441 0 0)
(-0.878675 0 0)
(-0.875887 0 0)
(-0.873076 0 0)
(-0.870244 0 0)
(-0.86739 0 0)
(-0.864514 0 0)
(-0.861617 0 0)
(-0.8587 0 0)
(-0.855761 0 0)
(-0.852802 0 0)
(-0.849823 0 0)
(-0.846823 0 0)
(-0.843804 0 0)
(-0.840765 0 0)
(-0.837707 0 0)
(-0.834629 0 0)
(-0.831533 0 0)
(-0.828418 0 0)
(-0.825284 0 0)
(-0.822132 0 0)
(-0.818961 0 0)
(-0.815773 0 0)
(-0.812567 0 0)
(-0.809343 0 0)
(-0.806102 0 0)
(-0.802844 0 0)
(-0.799569 0 0)
(-0.796277 0 0)
(-0.792968 0 0)
(-0.789642 0 0)
(-0.786301 0 0)
(-0.782943 0 0)
(-0.779569 0 0)
(-0.77618 0 0)
(-0.772774 0 0)
(-0.769354 0 0)
(-0.765918 0 0)
(-0.762467 0 0)
(-0.759001 0 0)
(-0.75552 0 0)
(-0.752024 0 0)
(-0.748514 0 0)
(-0.74499 0 0)
(-0.741451 0 0)
(-0.737898 0 0)
(-0.734332 0 0)
(-0.730751 0 0)
(-0.727157 0 0)
(-0.72355 0 0)
(-0.719929 0 0)
(-0.716295 0 0)
(-0.712648 0 0)
(-0.708988 0 0)
(-0.705315 0 0)
(-0.701629 0 0)
(-0.697931 0 0)
(-0.694221 0 0)
(-0.690498 0 0)
(-0.686763 0 0)
(-0.683016 0 0)
(-0.679257 0 0)
(-0.675487 0 0)
(-0.671704 0 0)
(-0.667911 0 0)
(-0.664105 0 0)
(-0.660289 0 0)
(-0.656461 0 0)
(-0.652623 0 0)
(-0.648773 0 0)
(-0.644913 0 0)
(-0.641041 0 0)
(-0.63716 0 0)
(-0.633267 0 0)
(-0.629365 0 0)
(-0.625452 0 0)
(-0.621529 0 0)
(-0.617596 0 0)
(-0.613653 0 0)
(-0.6097 0 0)
(-0.605737 0 0)
(-0.601765 0 0)
(-0.597783 0 0)
(-0.593792 0 0)
(-0.589792 0 0)
(-0.585782 0 0)
(-0.581763 0 0)
(-0.577735 0 0)
(-0.573698 0 0)
(-0.569653 0 0)
(-0.565598 0 0)
(-0.561535 0 0)
(-0.557464 0 0)
(-0.553384 0 0)
(-0.549295 0 0)
(-0.545198 0 0)
(-0.541094 0 0)
(-0.536981 0 0)
(-0.53286 0 0)
(-0.528731 0 0)
(-0.524594 0 0)
(-0.52045 0 0)
(-0.516298 0 0)
(-0.512138 0 0)
(-0.507971 0 0)
(-0.503796 0 0)
(-0.499614 0 0)
(-0.495425 0 0)
(-0.491229 0 0)
(-0.487026 0 0)
(-0.482816 0 0)
(-0.478599 0 0)
(-0.474375 0 0)
(-0.470144 0 0)
(-0.465907 0 0)
(-0.461663 0 0)
(-0.457412 0 0)
(-0.453156 0 0)
(-0.448893 0 0)
(-0.444623 0 0)
(-0.440348 0 0)
(-0.436066 0 0)
(-0.431778 0 0)
(-0.427485 0 0)
(-0.423185 0 0)
(-0.41888 0 0)
(-0.414569 0 0)
(-0.410252 0 0)
(-0.405929 0 0)
(-0.401602 0 0)
(-0.397268 0 0)
(-0.39293 0 0)
(-0.388586 0 0)
(-0.384236 0 0)
(-0.379882 0 0)
(-0.375523 0 0)
(-0.371158 0 0)
(-0.366789 0 0)
(-0.362415 0 0)
(-0.358035 0 0)
(-0.353652 0 0)
(-0.349263 0 0)
(-0.34487 0 0)
(-0.340472 0 0)
(-0.33607 0 0)
(-0.331664 0 0)
(-0.327253 0 0)
(-0.322838 0 0)
(-0.318419 0 0)
(-0.313995 0 0)
(-0.309567 0 0)
(-0.305136 0 0)
(-0.3007 0 0)
(-0.296261 0 0)
(-0.291818 0 0)
(-0.287371 0 0)
(-0.28292 0 0)
(-0.278466 0 0)
(-0.274008 0 0)
(-0.269547 0 0)
(-0.265082 0 0)
(-0.260614 0 0)
(-0.256142 0 0)
(-0.251668 0 0)
(-0.24719 0 0)
(-0.242709 0 0)
(-0.238225 0 0)
(-0.233738 0 0)
(-0.229247 0 0)
(-0.224755 0 0)
(-0.220259 0 0)
(-0.21576 0 0)
(-0.211259 0 0)
(-0.206755 0 0)
(-0.202249 0 0)
(-0.19774 0 0)
(-0.193228 0 0)
(-0.188714 0 0)
(-0.184198 0 0)
(-0.17968 0 0)
(-0.175159 0 0)
(-0.170636 0 0)
(-0.166111 0 0)
(-0.161584 0 0)
(-0.157055 0 0)
(-0.152524 0 0)
(-0.147991 0 0)
(-0.143456 0 0)
(-0.138919 0 0)
(-0.134381 0 0)
(-0.129841 0 0)
(-0.1253 0 0)
(-0.120757 0 0)
(-0.116212 0 0)
(-0.111666 0 0)
(-0.107119 0 0)
(-0.10257 0 0)
(-0.0980204 0 0)
(-0.0934693 0 0)
(-0.0889171 0 0)
(-0.0843637 0 0)
(-0.0798094 0 0)
(-0.0752541 0 0)
(-0.0706978 0 0)
(-0.0661407 0 0)
(-0.0615828 0 0)
(-0.0570241 0 0)
(-0.0524647 0 0)
(-0.0479047 0 0)
(-0.0433441 0 0)
(-0.038783 0 0)
(-0.0342214 0 0)
(-0.0296594 0 0)
(-0.025097 0 0)
(-0.0205344 0 0)
(-0.0159714 0 0)
(-0.0114083 0 0)
(-0.00684503 0 0)
(-0.00228169 0 0)
)
;

boundaryField
{
    left
    {
        type            fixedValue;
        value           uniform (0 0 0);
    }
    right
    {
        type            fixedValue;
        value           uniform (0 0 0);
    }
    frontBackUpDown
    {
        type            empty;
    }
}


// ************************************************************************* //
