/*--------------------------------*- C++ -*----------------------------------*\
| =========                 |                                                 |
| \\      /  F ield         | OpenFOAM: The Open Source CFD Toolbox           |
|  \\    /   O peration     | Version:  2412                                  |
|   \\  /    A nd           | Website:  www.openfoam.com                      |
|    \\/     M anipulation  |                                                 |
\*---------------------------------------------------------------------------*/
FoamFile
{
    version     2.0;
    format      ascii;
    arch        "LSB;label=32;scalar=64";
    class       volVectorField;
    location    "0.23";
    object      U_0_0;
}
// * * * * * * * * * * * * * * * * * * * * * * * * * * * * * * * * * * * * * //

dimensions      [0 1 -1 0 0 0 0];

internalField   nonuniform List<vector> 
800
(
(0.00228373 0 0)
(0.00685124 0 0)
(0.0114187 0 0)
(0.015986 0 0)
(0.0205531 0 0)
(0.0251199 0 0)
(0.0296864 0 0)
(0.0342526 0 0)
(0.0388184 0 0)
(0.0433837 0 0)
(0.0479484 0 0)
(0.0525126 0 0)
(0.0570761 0 0)
(0.0616389 0 0)
(0.066201 0 0)
(0.0707623 0 0)
(0.0753227 0 0)
(0.0798821 0 0)
(0.0844406 0 0)
(0.0889981 0 0)
(0.0935544 0 0)
(0.0981097 0 0)
(0.102664 0 0)
(0.107216 0 0)
(0.111768 0 0)
(0.116318 0 0)
(0.120867 0 0)
(0.125414 0 0)
(0.129959 0 0)
(0.134503 0 0)
(0.139046 0 0)
(0.143586 0 0)
(0.148125 0 0)
(0.152662 0 0)
(0.157197 0 0)
(0.16173 0 0)
(0.166261 0 0)
(0.17079 0 0)
(0.175317 0 0)
(0.179842 0 0)
(0.184365 0 0)
(0.188885 0 0)
(0.193403 0 0)
(0.197918 0 0)
(0.202431 0 0)
(0.206942 0 0)
(0.211449 0 0)
(0.215955 0 0)
(0.220457 0 0)
(0.224957 0 0)
(0.229454 0 0)
(0.233948 0 0)
(0.238439 0 0)
(0.242927 0 0)
(0.247412 0 0)
(0.251893 0 0)
(0.256372 0 0)
(0.260847 0 0)
(0.265319 0 0)
(0.269788 0 0)
(0.274253 0 0)
(0.278715 0 0)
(0.283173 0 0)
(0.287627 0 0)
(0.292078 0 0)
(0.296525 0 0)
(0.300968 0 0)
(0.305407 0 0)
(0.309842 0 0)
(0.314273 0 0)
(0.318701 0 0)
(0.323124 0 0)
(0.327542 0 0)
(0.331957 0 0)
(0.336367 0 0)
(0.340773 0 0)
(0.345174 0 0)
(0.349571 0 0)
(0.353963 0 0)
(0.35835 0 0)
(0.362733 0 0)
(0.36711 0 0)
(0.371483 0 0)
(0.375851 0 0)
(0.380214 0 0)
(0.384572 0 0)
(0.388924 0 0)
(0.393272 0 0)
(0.397614 0 0)
(0.40195 0 0)
(0.406281 0 0)
(0.410607 0 0)
(0.414927 0 0)
(0.419241 0 0)
(0.42355 0 0)
(0.427853 0 0)
(0.43215 0 0)
(0.436441 0 0)
(0.440725 0 0)
(0.445004 0 0)
(0.449277 0 0)
(0.453543 0 0)
(0.457803 0 0)
(0.462056 0 0)
(0.466303 0 0)
(0.470543 0 0)
(0.474777 0 0)
(0.479004 0 0)
(0.483224 0 0)
(0.487437 0 0)
(0.491643 0 0)
(0.495842 0 0)
(0.500034 0 0)
(0.504219 0 0)
(0.508396 0 0)
(0.512566 0 0)
(0.516728 0 0)
(0.520883 0 0)
(0.52503 0 0)
(0.529169 0 0)
(0.533301 0 0)
(0.537424 0 0)
(0.54154 0 0)
(0.545647 0 0)
(0.549746 0 0)
(0.553837 0 0)
(0.55792 0 0)
(0.561994 0 0)
(0.566059 0 0)
(0.570116 0 0)
(0.574164 0 0)
(0.578203 0 0)
(0.582233 0 0)
(0.586254 0 0)
(0.590266 0 0)
(0.594268 0 0)
(0.598262 0 0)
(0.602245 0 0)
(0.60622 0 0)
(0.610184 0 0)
(0.614139 0 0)
(0.618084 0 0)
(0.622019 0 0)
(0.625944 0 0)
(0.629859 0 0)
(0.633763 0 0)
(0.637657 0 0)
(0.64154 0 0)
(0.645413 0 0)
(0.649275 0 0)
(0.653126 0 0)
(0.656966 0 0)
(0.660796 0 0)
(0.664613 0 0)
(0.66842 0 0)
(0.672215 0 0)
(0.675999 0 0)
(0.679771 0 0)
(0.683531 0 0)
(0.687279 0 0)
(0.691015 0 0)
(0.694739 0 0)
(0.69845 0 0)
(0.702149 0 0)
(0.705836 0 0)
(0.709509 0 0)
(0.71317 0 0)
(0.716818 0 0)
(0.720453 0 0)
(0.724075 0 0)
(0.727683 0 0)
(0.731278 0 0)
(0.734859 0 0)
(0.738426 0 0)
(0.741979 0 0)
(0.745518 0 0)
(0.749043 0 0)
(0.752553 0 0)
(0.756049 0 0)
(0.75953 0 0)
(0.762996 0 0)
(0.766448 0 0)
(0.769883 0 0)
(0.773304 0 0)
(0.776709 0 0)
(0.780099 0 0)
(0.783472 0 0)
(0.78683 0 0)
(0.790171 0 0)
(0.793496 0 0)
(0.796804 0 0)
(0.800096 0 0)
(0.803371 0 0)
(0.806628 0 0)
(0.809869 0 0)
(0.813092 0 0)
(0.816297 0 0)
(0.819484 0 0)
(0.822654 0 0)
(0.825805 0 0)
(0.828938 0 0)
(0.832052 0 0)
(0.835147 0 0)
(0.838223 0 0)
(0.84128 0 0)
(0.844317 0 0)
(0.847335 0 0)
(0.850333 0 0)
(0.853311 0 0)
(0.856268 0 0)
(0.859205 0 0)
(0.862121 0 0)
(0.865015 0 0)
(0.867889 0 0)
(0.870741 0 0)
(0.873571 0 0)
(0.876379 0 0)
(0.879165 0 0)
(0.881928 0 0)
(0.884669 0 0)
(0.887386 0 0)
(0.89008 0 0)
(0.892751 0 0)
(0.895398 0 0)
(0.89802 0 0)
(0.900618 0 0)
(0.903191 0 0)
(0.905739 0 0)
(0.908262 0 0)
(0.910759 0 0)
(0.913231 0 0)
(0.915676 0 0)
(0.918094 0 0)
(0.920485 0 0)
(0.92285 0 0)
(0.925186 0 0)
(0.927495 0 0)
(0.929775 0 0)
(0.932027 0 0)
(0.93425 0 0)
(0.936444 0 0)
(0.938607 0 0)
(0.940741 0 0)
(0.942845 0 0)
(0.944917 0 0)
(0.946958 0 0)
(0.948968 0 0)
(0.950945 0 0)
(0.95289 0 0)
(0.954802 0 0)
(0.956681 0 0)
(0.958526 0 0)
(0.960337 0 0)
(0.962113 0 0)
(0.963854 0 0)
(0.965559 0 0)
(0.967228 0 0)
(0.968861 0 0)
(0.970456 0 0)
(0.972014 0 0)
(0.973534 0 0)
(0.975015 0 0)
(0.976456 0 0)
(0.977858 0 0)
(0.97922 0 0)
(0.980541 0 0)
(0.98182 0 0)
(0.983057 0 0)
(0.984251 0 0)
(0.985403 0 0)
(0.98651 0 0)
(0.987572 0 0)
(0.988589 0 0)
(0.98956 0 0)
(0.990485 0 0)
(0.991362 0 0)
(0.992191 0 0)
(0.992971 0 0)
(0.993701 0 0)
(0.994381 0 0)
(0.99501 0 0)
(0.995587 0 0)
(0.996111 0 0)
(0.996582 0 0)
(0.996998 0 0)
(0.997358 0 0)
(0.997662 0 0)
(0.997909 0 0)
(0.998097 0 0)
(0.998227 0 0)
(0.998296 0 0)
(0.998304 0 0)
(0.998249 0 0)
(0.998132 0 0)
(0.997949 0 0)
(0.997702 0 0)
(0.997387 0 0)
(0.997004 0 0)
(0.996552 0 0)
(0.99603 0 0)
(0.995436 0 0)
(0.994769 0 0)
(0.994028 0 0)
(0.99321 0 0)
(0.992316 0 0)
(0.991342 0 0)
(0.990289 0 0)
(0.989153 0 0)
(0.987934 0 0)
(0.98663 0 0)
(0.98524 0 0)
(0.98376 0 0)
(0.982191 0 0)
(0.980529 0 0)
(0.978773 0 0)
(0.976921 0 0)
(0.974971 0 0)
(0.972921 0 0)
(0.970768 0 0)
(0.968511 0 0)
(0.966147 0 0)
(0.963674 0 0)
(0.961089 0 0)
(0.958389 0 0)
(0.955573 0 0)
(0.952638 0 0)
(0.94958 0 0)
(0.946397 0 0)
(0.943086 0 0)
(0.939643 0 0)
(0.936067 0 0)
(0.932352 0 0)
(0.928496 0 0)
(0.924496 0 0)
(0.920347 0 0)
(0.916046 0 0)
(0.911589 0 0)
(0.906972 0 0)
(0.90219 0 0)
(0.89724 0 0)
(0.892116 0 0)
(0.886815 0 0)
(0.88133 0 0)
(0.875658 0 0)
(0.869792 0 0)
(0.863727 0 0)
(0.857457 0 0)
(0.850978 0 0)
(0.844281 0 0)
(0.837362 0 0)
(0.830212 0 0)
(0.822827 0 0)
(0.815197 0 0)
(0.807316 0 0)
(0.799176 0 0)
(0.790769 0 0)
(0.782086 0 0)
(0.773119 0 0)
(0.763859 0 0)
(0.754296 0 0)
(0.744421 0 0)
(0.734223 0 0)
(0.723693 0 0)
(0.712818 0 0)
(0.701589 0 0)
(0.689993 0 0)
(0.67802 0 0)
(0.665656 0 0)
(0.652889 0 0)
(0.639707 0 0)
(0.626096 0 0)
(0.612045 0 0)
(0.597538 0 0)
(0.582564 0 0)
(0.567109 0 0)
(0.55116 0 0)
(0.534706 0 0)
(0.517732 0 0)
(0.500229 0 0)
(0.482186 0 0)
(0.463594 0 0)
(0.444444 0 0)
(0.424732 0 0)
(0.404452 0 0)
(0.383604 0 0)
(0.362189 0 0)
(0.340211 0 0)
(0.31768 0 0)
(0.294608 0 0)
(0.271011 0 0)
(0.246911 0 0)
(0.222336 0 0)
(0.197316 0 0)
(0.171889 0 0)
(0.146097 0 0)
(0.119986 0 0)
(0.0936075 0 0)
(0.067017 0 0)
(0.0402726 0 0)
(0.0134348 0 0)
(-0.0134342 0 0)
(-0.0402718 0 0)
(-0.0670161 0 0)
(-0.0936063 0 0)
(-0.119984 0 0)
(-0.146095 0 0)
(-0.171887 0 0)
(-0.197313 0 0)
(-0.222332 0 0)
(-0.246907 0 0)
(-0.271006 0 0)
(-0.294603 0 0)
(-0.317674 0 0)
(-0.340205 0 0)
(-0.362182 0 0)
(-0.383597 0 0)
(-0.404444 0 0)
(-0.424724 0 0)
(-0.444436 0 0)
(-0.463585 0 0)
(-0.482177 0 0)
(-0.50022 0 0)
(-0.517723 0 0)
(-0.534696 0 0)
(-0.551151 0 0)
(-0.567099 0 0)
(-0.582554 0 0)
(-0.597529 0 0)
(-0.612035 0 0)
(-0.626087 0 0)
(-0.639697 0 0)
(-0.65288 0 0)
(-0.665646 0 0)
(-0.678011 0 0)
(-0.689985 0 0)
(-0.70158 0 0)
(-0.71281 0 0)
(-0.723684 0 0)
(-0.734215 0 0)
(-0.744413 0 0)
(-0.754289 0 0)
(-0.763852 0 0)
(-0.773112 0 0)
(-0.782079 0 0)
(-0.790762 0 0)
(-0.79917 0 0)
(-0.80731 0 0)
(-0.815191 0 0)
(-0.822821 0 0)
(-0.830207 0 0)
(-0.837356 0 0)
(-0.844276 0 0)
(-0.850973 0 0)
(-0.857453 0 0)
(-0.863722 0 0)
(-0.869787 0 0)
(-0.875653 0 0)
(-0.881326 0 0)
(-0.886811 0 0)
(-0.892113 0 0)
(-0.897237 0 0)
(-0.902187 0 0)
(-0.906969 0 0)
(-0.911586 0 0)
(-0.916043 0 0)
(-0.920344 0 0)
(-0.924493 0 0)
(-0.928494 0 0)
(-0.93235 0 0)
(-0.936064 0 0)
(-0.939641 0 0)
(-0.943084 0 0)
(-0.946395 0 0)
(-0.949578 0 0)
(-0.952636 0 0)
(-0.955572 0 0)
(-0.958388 0 0)
(-0.961087 0 0)
(-0.963673 0 0)
(-0.966146 0 0)
(-0.96851 0 0)
(-0.970767 0 0)
(-0.97292 0 0)
(-0.97497 0 0)
(-0.976921 0 0)
(-0.978773 0 0)
(-0.980529 0 0)
(-0.98219 0 0)
(-0.98376 0 0)
(-0.985239 0 0)
(-0.98663 0 0)
(-0.987934 0 0)
(-0.989153 0 0)
(-0.990288 0 0)
(-0.991342 0 0)
(-0.992315 0 0)
(-0.99321 0 0)
(-0.994027 0 0)
(-0.994769 0 0)
(-0.995436 0 0)
(-0.99603 0 0)
(-0.996552 0 0)
(-0.997004 0 0)
(-0.997387 0 0)
(-0.997701 0 0)
(-0.997949 0 0)
(-0.998132 0 0)
(-0.998249 0 0)
(-0.998304 0 0)
(-0.998296 0 0)
(-0.998227 0 0)
(-0.998097 0 0)
(-0.997909 0 0)
(-0.997662 0 0)
(-0.997358 0 0)
(-0.996998 0 0)
(-0.996582 0 0)
(-0.996111 0 0)
(-0.995587 0 0)
(-0.99501 0 0)
(-0.994381 0 0)
(-0.993701 0 0)
(-0.992971 0 0)
(-0.992191 0 0)
(-0.991362 0 0)
(-0.990485 0 0)
(-0.98956 0 0)
(-0.988589 0 0)
(-0.987572 0 0)
(-0.986509 0 0)
(-0.985402 0 0)
(-0.984251 0 0)
(-0.983057 0 0)
(-0.98182 0 0)
(-0.98054 0 0)
(-0.97922 0 0)
(-0.977858 0 0)
(-0.976456 0 0)
(-0.975014 0 0)
(-0.973533 0 0)
(-0.972013 0 0)
(-0.970456 0 0)
(-0.96886 0 0)
(-0.967228 0 0)
(-0.965558 0 0)
(-0.963853 0 0)
(-0.962112 0 0)
(-0.960336 0 0)
(-0.958525 0 0)
(-0.95668 0 0)
(-0.954802 0 0)
(-0.952889 0 0)
(-0.950944 0 0)
(-0.948967 0 0)
(-0.946957 0 0)
(-0.944916 0 0)
(-0.942844 0 0)
(-0.94074 0 0)
(-0.938607 0 0)
(-0.936443 0 0)
(-0.934249 0 0)
(-0.932026 0 0)
(-0.929774 0 0)
(-0.927494 0 0)
(-0.925185 0 0)
(-0.922848 0 0)
(-0.920484 0 0)
(-0.918093 0 0)
(-0.915674 0 0)
(-0.913229 0 0)
(-0.910758 0 0)
(-0.908261 0 0)
(-0.905738 0 0)
(-0.90319 0 0)
(-0.900617 0 0)
(-0.898019 0 0)
(-0.895396 0 0)
(-0.89275 0 0)
(-0.890079 0 0)
(-0.887385 0 0)
(-0.884668 0 0)
(-0.881927 0 0)
(-0.879164 0 0)
(-0.876378 0 0)
(-0.87357 0 0)
(-0.870739 0 0)
(-0.867887 0 0)
(-0.865014 0 0)
(-0.862119 0 0)
(-0.859203 0 0)
(-0.856266 0 0)
(-0.853309 0 0)
(-0.850331 0 0)
(-0.847334 0 0)
(-0.844316 0 0)
(-0.841278 0 0)
(-0.838221 0 0)
(-0.835145 0 0)
(-0.83205 0 0)
(-0.828936 0 0)
(-0.825803 0 0)
(-0.822652 0 0)
(-0.819483 0 0)
(-0.816295 0 0)
(-0.81309 0 0)
(-0.809867 0 0)
(-0.806627 0 0)
(-0.803369 0 0)
(-0.800094 0 0)
(-0.796803 0 0)
(-0.793494 0 0)
(-0.790169 0 0)
(-0.786828 0 0)
(-0.78347 0 0)
(-0.780097 0 0)
(-0.776707 0 0)
(-0.773302 0 0)
(-0.769882 0 0)
(-0.766446 0 0)
(-0.762995 0 0)
(-0.759528 0 0)
(-0.756047 0 0)
(-0.752552 0 0)
(-0.749041 0 0)
(-0.745516 0 0)
(-0.741977 0 0)
(-0.738424 0 0)
(-0.734857 0 0)
(-0.731276 0 0)
(-0.727681 0 0)
(-0.724073 0 0)
(-0.720452 0 0)
(-0.716817 0 0)
(-0.713169 0 0)
(-0.709508 0 0)
(-0.705834 0 0)
(-0.702148 0 0)
(-0.698448 0 0)
(-0.694737 0 0)
(-0.691013 0 0)
(-0.687277 0 0)
(-0.683529 0 0)
(-0.679769 0 0)
(-0.675997 0 0)
(-0.672214 0 0)
(-0.668418 0 0)
(-0.664612 0 0)
(-0.660794 0 0)
(-0.656965 0 0)
(-0.653125 0 0)
(-0.649273 0 0)
(-0.645411 0 0)
(-0.641539 0 0)
(-0.637655 0 0)
(-0.633761 0 0)
(-0.629857 0 0)
(-0.625942 0 0)
(-0.622017 0 0)
(-0.618083 0 0)
(-0.614138 0 0)
(-0.610183 0 0)
(-0.606218 0 0)
(-0.602244 0 0)
(-0.59826 0 0)
(-0.594267 0 0)
(-0.590264 0 0)
(-0.586252 0 0)
(-0.582231 0 0)
(-0.578201 0 0)
(-0.574162 0 0)
(-0.570114 0 0)
(-0.566058 0 0)
(-0.561992 0 0)
(-0.557918 0 0)
(-0.553836 0 0)
(-0.549745 0 0)
(-0.545646 0 0)
(-0.541538 0 0)
(-0.537423 0 0)
(-0.533299 0 0)
(-0.529168 0 0)
(-0.525029 0 0)
(-0.520882 0 0)
(-0.516727 0 0)
(-0.512565 0 0)
(-0.508395 0 0)
(-0.504217 0 0)
(-0.500033 0 0)
(-0.495841 0 0)
(-0.491642 0 0)
(-0.487436 0 0)
(-0.483223 0 0)
(-0.479003 0 0)
(-0.474776 0 0)
(-0.470542 0 0)
(-0.466302 0 0)
(-0.462055 0 0)
(-0.457802 0 0)
(-0.453542 0 0)
(-0.449276 0 0)
(-0.445003 0 0)
(-0.440725 0 0)
(-0.43644 0 0)
(-0.432149 0 0)
(-0.427852 0 0)
(-0.423549 0 0)
(-0.419241 0 0)
(-0.414926 0 0)
(-0.410606 0 0)
(-0.406281 0 0)
(-0.401949 0 0)
(-0.397613 0 0)
(-0.393271 0 0)
(-0.388924 0 0)
(-0.384571 0 0)
(-0.380213 0 0)
(-0.37585 0 0)
(-0.371482 0 0)
(-0.36711 0 0)
(-0.362732 0 0)
(-0.358349 0 0)
(-0.353962 0 0)
(-0.34957 0 0)
(-0.345173 0 0)
(-0.340772 0 0)
(-0.336366 0 0)
(-0.331956 0 0)
(-0.327542 0 0)
(-0.323123 0 0)
(-0.3187 0 0)
(-0.314273 0 0)
(-0.309842 0 0)
(-0.305407 0 0)
(-0.300967 0 0)
(-0.296524 0 0)
(-0.292077 0 0)
(-0.287627 0 0)
(-0.283172 0 0)
(-0.278714 0 0)
(-0.274253 0 0)
(-0.269787 0 0)
(-0.265319 0 0)
(-0.260847 0 0)
(-0.256372 0 0)
(-0.251893 0 0)
(-0.247411 0 0)
(-0.242926 0 0)
(-0.238438 0 0)
(-0.233947 0 0)
(-0.229453 0 0)
(-0.224957 0 0)
(-0.220457 0 0)
(-0.215954 0 0)
(-0.211449 0 0)
(-0.206941 0 0)
(-0.202431 0 0)
(-0.197918 0 0)
(-0.193403 0 0)
(-0.188885 0 0)
(-0.184364 0 0)
(-0.179842 0 0)
(-0.175317 0 0)
(-0.17079 0 0)
(-0.166261 0 0)
(-0.16173 0 0)
(-0.157197 0 0)
(-0.152662 0 0)
(-0.148125 0 0)
(-0.143586 0 0)
(-0.139045 0 0)
(-0.134503 0 0)
(-0.129959 0 0)
(-0.125414 0 0)
(-0.120866 0 0)
(-0.116318 0 0)
(-0.111768 0 0)
(-0.107216 0 0)
(-0.102664 0 0)
(-0.0981096 0 0)
(-0.0935544 0 0)
(-0.088998 0 0)
(-0.0844406 0 0)
(-0.0798821 0 0)
(-0.0753226 0 0)
(-0.0707622 0 0)
(-0.066201 0 0)
(-0.0616389 0 0)
(-0.0570761 0 0)
(-0.0525126 0 0)
(-0.0479484 0 0)
(-0.0433837 0 0)
(-0.0388184 0 0)
(-0.0342526 0 0)
(-0.0296865 0 0)
(-0.0251199 0 0)
(-0.0205531 0 0)
(-0.015986 0 0)
(-0.0114187 0 0)
(-0.00685128 0 0)
(-0.00228377 0 0)
)
;

boundaryField
{
    left
    {
        type            fixedValue;
        value           uniform (0 0 0);
    }
    right
    {
        type            fixedValue;
        value           uniform (0 0 0);
    }
    frontBackUpDown
    {
        type            empty;
    }
}


// ************************************************************************* //
