/*--------------------------------*- C++ -*----------------------------------*\
| =========                 |                                                 |
| \\      /  F ield         | OpenFOAM: The Open Source CFD Toolbox           |
|  \\    /   O peration     | Version:  2412                                  |
|   \\  /    A nd           | Website:  www.openfoam.com                      |
|    \\/     M anipulation  |                                                 |
\*---------------------------------------------------------------------------*/
FoamFile
{
    version     2.0;
    format      ascii;
    arch        "LSB;label=32;scalar=64";
    class       volScalarField;
    location    "3";
    object      p;
}
// * * * * * * * * * * * * * * * * * * * * * * * * * * * * * * * * * * * * * //

dimensions      [0 2 -2 0 0 0 0];

internalField   nonuniform List<scalar> 
2200
(
0.521257
0.520207
0.522794
0.522094
0.527634
0.543507
0.57426
0.620571
0.68505
0.756554
0.799342
0.794424
0.773031
0.752988
0.737314
0.730813
0.729768
0.730307
0.728442
0.729478
0.517795
0.516951
0.518445
0.5245
0.537553
0.561622
0.596199
0.645196
0.713705
0.792548
0.83386
0.820881
0.795515
0.773505
0.753845
0.738688
0.730003
0.726691
0.725534
0.726185
0.530931
0.526839
0.527946
0.542459
0.566048
0.600061
0.647694
0.713283
0.785785
0.860849
0.897684
0.886107
0.85824
0.821985
0.791296
0.766112
0.748432
0.737119
0.737468
0.741788
0.585828
0.579992
0.574754
0.579899
0.600103
0.642365
0.707734
0.795451
0.887146
0.964145
0.998435
0.983441
0.942225
0.885471
0.839972
0.807938
0.793298
0.790445
0.796598
0.802868
0.67655
0.669487
0.662891
0.655151
0.660939
0.690472
0.759397
0.861947
0.980003
1.09254
1.13183
1.08985
1.02186
0.950691
0.900796
0.881819
0.881313
0.890609
0.897939
0.905118
0.789445
0.779734
0.769923
0.752081
0.744492
0.756457
0.808435
0.913489
1.06246
1.21901
1.26592
1.18793
1.09011
1.01787
0.984625
0.981409
0.994037
1.01539
1.02618
1.03621
0.946389
0.934097
0.911873
0.879857
0.869435
0.870708
0.890061
0.976985
1.14276
1.32195
1.3763
1.285
1.17618
1.12389
1.12219
1.13076
1.14476
1.18073
1.20472
1.21735
1.1952
1.17879
1.14504
1.10574
1.10218
1.11003
1.12008
1.16424
1.28919
1.46422
1.52571
1.45325
1.39055
1.38285
1.39187
1.3969
1.40819
1.44995
1.4845
1.50103
1.58304
1.56542
1.52591
1.46725
1.44277
1.48141
1.54162
1.59122
1.65702
1.76991
1.83615
1.84105
1.84822
1.84033
1.80492
1.78016
1.81227
1.87423
1.9146
1.93267
2.09323
2.07478
2.02914
1.95636
1.89668
1.91404
2.0305
2.18984
2.29526
2.41213
2.48574
2.50462
2.48696
2.37678
2.29128
2.29201
2.35909
2.4351
2.482
2.50091
2.70158
2.6811
2.62843
2.53895
2.44615
2.40709
2.51183
2.74889
3.03319
3.31323
3.39997
3.27797
3.09754
2.92261
2.85763
2.91585
3.01615
3.10834
3.16175
3.18237
3.39738
3.37589
3.31795
3.21537
3.09806
3.00906
3.03678
3.20425
3.56341
3.95029
4.05219
3.8508
3.62241
3.53239
3.54788
3.65577
3.78222
3.88769
3.9468
3.96867
4.15907
4.13762
4.07849
3.96922
3.83099
3.70804
3.65844
3.69715
3.92811
4.21297
4.33974
4.2814
4.21005
4.26161
4.35543
4.49952
4.64604
4.75806
4.81808
4.83932
4.9302
4.91121
4.85618
4.74837
4.59869
4.45003
4.36709
4.36918
4.50379
4.67974
4.84205
4.93928
4.99786
5.10318
5.23714
5.40872
5.56736
5.67827
5.73454
5.75404
5.67118
5.65476
5.60576
5.50822
5.3639
5.20726
5.11902
5.17122
5.35431
5.57366
5.77537
5.88252
5.9392
6.01627
6.1672
6.34918
6.50207
6.60244
6.65149
6.66815
6.31862
6.30801
6.27188
6.19303
6.0711
5.92895
5.83724
5.92284
6.14772
6.45099
6.69942
6.79701
6.85587
6.93191
7.09596
7.26447
7.39711
7.48137
7.5223
7.53519
6.82297
6.8148
6.78714
6.72745
6.63785
6.52591
6.43656
6.50893
6.7044
7.02418
7.33213
7.51612
7.64615
7.76339
7.92896
8.08431
8.19347
8.25999
8.29189
8.30211
7.11786
7.11595
7.10313
7.06695
7.00839
6.93107
6.89717
6.94519
7.13013
7.44369
7.82303
8.13544
8.33724
8.4932
8.64038
8.78129
8.86888
8.92406
8.95125
8.96119
7.20313
7.20139
7.19685
7.18098
7.16173
7.14344
7.14412
7.20923
7.47336
7.83057
8.2918
8.69414
8.91154
9.12837
9.28826
9.38565
9.4504
9.49
9.50913
9.51967
7.06217
7.06573
7.07406
7.07937
7.08979
7.1126
7.16626
7.32393
7.6734
8.13142
8.68955
9.16375
9.43304
9.64588
9.79246
9.88124
9.9411
9.97688
9.99321
10.0065
6.70478
6.71
6.72933
6.75974
6.80422
6.8846
7.022
7.26786
7.70987
8.30042
8.97282
9.51615
9.85008
10.0827
10.2365
10.335
10.3996
10.4384
10.4584
10.4679
6.12495
6.13596
6.16851
6.22425
6.31672
6.46655
6.701
7.06781
7.62874
8.36093
9.16714
9.80014
10.2082
10.487
10.6722
10.7934
10.8753
10.9321
10.9583
10.9615
5.28108
5.30469
5.36579
5.47124
5.63402
5.87924
6.24637
6.76671
7.47712
8.37515
9.3318
10.0731
10.567
10.9042
11.1372
11.2956
11.3974
11.4687
11.5139
11.5334
4.1159
4.1638
4.27227
4.45063
4.72878
5.13548
5.67698
6.38477
7.28854
8.37941
9.49352
10.3591
10.9514
11.3623
11.6529
11.8603
12.0049
12.0968
12.1587
12.1883
2.53101
2.62802
2.81755
3.14494
3.62032
4.23725
5.00692
5.95167
7.0828
8.38343
9.67005
10.6709
11.3706
11.8692
12.2306
12.494
12.6882
12.8298
12.9237
12.9567
0.383154
0.522911
0.930308
1.56121
2.32815
3.2344
4.28952
5.50501
6.88232
8.40845
9.87667
11.0168
11.8265
12.4168
12.8579
13.1951
13.4518
13.6374
13.7519
13.7838
-2.66325
-2.11456
-1.18326
-0.147706
0.965703
2.20008
3.56001
5.06424
6.70332
8.47712
10.1464
11.4531
12.4072
13.1252
13.6746
14.1072
14.4667
14.768
14.9677
15.0232
-6.24225
-4.76714
-3.24144
-1.82023
-0.365448
1.18136
2.84575
4.63339
6.54963
8.58054
10.4694
11.9689
13.0849
13.949
14.6355
15.1866
15.633
16.0336
16.401
16.5691
-8.82473
-7.02257
-5.20593
-3.45597
-1.67357
0.206882
2.17158
4.23755
6.42422
8.68742
10.7772
12.4462
13.6971
14.6718
15.4577
16.1002
16.6157
16.9832
17.4146
17.5689
-10.7026
-8.79017
-6.92063
-4.96418
-2.88601
-0.703988
1.53777
3.87108
6.30117
8.77315
11.0473
12.8614
14.2227
15.273
16.1013
16.7736
17.3212
17.6927
18.0629
18.2133
-12.1209
-10.0424
-8.32462
-6.24904
-3.95445
-1.54202
0.94894
3.5187
6.15899
8.82541
11.2684
13.1999
14.6372
15.729
16.5631
17.2161
17.7523
18.1431
18.4889
18.6511
-13.1996
-11.1676
-9.46114
-7.24743
-4.84009
-2.26131
0.421066
3.17887
5.99904
8.84328
11.4285
13.4411
14.9135
16.0179
16.8517
17.4973
18.0291
18.441
18.7849
18.9639
-14.0709
-12.0401
-10.3557
-8.06414
-5.54208
-2.85092
-0.0389384
2.86025
5.83087
8.82294
11.5185
13.5933
15.0966
16.2234
17.0837
17.7369
18.2586
18.6743
19.0171
19.1928
-14.7437
-12.6354
-10.9998
-8.6087
-6.04986
-3.32046
-0.43608
2.56603
5.65538
8.76243
11.5528
13.6973
15.2456
16.3965
17.2724
17.9437
18.4737
18.8912
19.2455
19.3847
-15.3465
-13.2386
-11.4566
-8.91447
-6.38266
-3.67159
-0.76684
2.30056
5.47627
8.6769
11.5635
13.7901
15.3945
16.5807
17.4869
18.172
18.6903
19.0922
19.4287
19.5981
-15.8256
-13.7611
-11.8563
-9.19772
-6.66683
-3.95971
-1.03921
2.07094
5.30814
8.58842
11.5697
13.8813
15.548
16.7709
17.682
18.372
18.9046
19.3127
19.6495
19.8182
-16.2374
-14.1046
-12.171
-9.50365
-6.98445
-4.24841
-1.28414
1.87271
5.15887
8.50382
11.5675
13.9575
15.6786
16.935
17.8763
18.5818
19.1163
19.5234
19.8444
20.0269
-16.65
-14.5245
-12.4964
-9.84288
-7.32647
-4.54707
-1.52045
1.69008
5.01768
8.41199
11.5427
14.003
15.7833
17.0887
18.0674
18.799
19.3435
19.7606
20.0836
20.2541
-17.0129
-14.9498
-12.9236
-10.2696
-7.69739
-4.85005
-1.75497
1.50339
4.86436
8.29831
11.4836
14.0089
15.8567
17.2237
18.2412
19.0066
19.5764
20.0067
20.3331
20.512
-17.3939
-15.3113
-13.3591
-10.7114
-8.08518
-5.16013
-1.99801
1.29758
4.68677
8.15734
11.391
13.9805
15.9001
17.3362
18.4168
19.2305
19.8362
20.2873
20.609
20.7759
-17.8417
-15.7648
-13.7579
-11.0924
-8.44947
-5.4635
-2.25118
1.07091
4.48648
7.99406
11.2718
13.9176
15.9093
17.4237
18.5779
19.4588
20.1105
20.5868
20.9253
21.1037
-18.2473
-16.1835
-14.14
-11.4477
-8.76911
-5.7442
-2.50536
0.833911
4.27463
7.81799
11.1311
13.8203
15.8818
17.4807
18.7186
19.6747
20.3912
20.9182
21.2693
21.4302
-18.5724
-16.5006
-14.4563
-11.7363
-9.03961
-5.99595
-2.74778
0.600987
4.06353
7.63643
10.9733
13.6956
15.8164
17.4881
18.8128
19.8625
20.6622
21.2754
21.6724
21.8471
-18.9022
-16.7996
-14.664
-11.9505
-9.26519
-6.21784
-2.97153
0.381209
3.86047
7.45249
10.8
13.541
15.7024
17.4437
18.8606
20.014
20.928
21.6364
22.0946
22.2881
-19.1681
-17.0774
-14.9196
-12.1745
-9.47014
-6.41738
-3.17793
0.176249
3.66636
7.26576
10.6128
13.3613
15.5518
17.3492
18.8425
20.0972
21.1348
21.9838
22.5596
22.7779
-19.411
-17.3521
-15.2264
-12.438
-9.67917
-6.60972
-3.37499
-0.0185202
3.47769
7.07564
10.4151
13.1615
15.3644
17.198
18.7573
20.1087
21.2714
22.2736
22.9992
23.1951
-19.6653
-17.5574
-15.3729
-12.6241
-9.88973
-6.80857
-3.57229
-0.211211
3.28719
6.87791
10.2023
12.9335
15.131
16.982
18.5802
19.995
21.2563
22.4042
23.4118
23.7112
-19.8488
-17.651
-15.4533
-12.7584
-10.106
-7.01711
-3.77734
-0.411859
3.08432
6.66277
9.96253
12.6618
14.8338
16.6745
18.2801
19.7175
21.0191
22.1891
22.962
23.0868
-20.107
-17.9986
-15.8474
-13.083
-10.3444
-7.22907
-3.98657
-0.619039
2.87126
6.43298
9.69825
12.3495
14.4738
16.2744
17.8424
19.223
20.4227
21.4158
21.9178
22.0704
-20.4274
-18.4903
-16.3624
-13.4723
-10.5932
-7.44805
-4.19913
-0.833548
2.64757
6.18794
9.41019
11.9971
14.0444
15.7642
17.2424
18.5095
19.5413
20.2477
20.5595
20.8072
-20.6383
-18.585
-16.3709
-13.5508
-10.8135
-7.66625
-4.41624
-1.05643
2.41256
5.92682
9.09998
11.6064
13.5485
15.1466
16.4797
17.5795
18.4474
19.0198
19.2557
19.5722
-20.7574
-18.5166
-16.3112
-13.6095
-11.0234
-7.87424
-4.64242
-1.29102
2.16238
5.64644
8.76735
11.1809
12.9905
14.4227
15.5789
16.4959
17.2172
17.6691
17.8127
18.1987
-20.9838
-18.931
-16.829
-14.0251
-11.2671
-8.09493
-4.87886
-1.53692
1.89737
5.34744
8.41339
10.725
12.3812
13.6174
14.5763
15.296
15.7899
16.0997
16.2653
16.6552
-21.3035
-19.3787
-17.2293
-14.368
-11.5109
-8.33552
-5.11623
-1.78621
1.62611
5.0379
8.04483
10.2488
11.7427
12.7693
13.51
14.0367
14.3046
14.3286
14.2614
14.5211
-21.4858
-19.4024
-17.156
-14.357
-11.6992
-8.55077
-5.34444
-2.03074
1.35739
4.72614
7.66848
9.76516
11.1014
11.9168
12.4185
12.7346
12.7323
12.1419
11.189
11.3232
-21.5989
-19.4827
-17.2869
-14.5122
-11.8864
-8.73882
-5.56218
-2.26511
1.09656
4.41792
7.28954
9.28446
10.4807
11.1024
11.3404
11.3548
11.0794
9.89724
7.57916
5.42978
-21.846
-19.8517
-17.6908
-14.8557
-12.1096
-8.93949
-5.77186
-2.48712
0.84933
4.12247
6.91912
8.82223
9.9047
10.3619
10.3414
9.97983
9.35523
8.16082
4.07345
-6.9101
-22.1035
-20.098
-17.8524
-15.015
-12.3093
-9.13498
-5.97113
-2.69829
0.615361
3.84041
6.55832
8.3741
9.36142
9.68615
9.45557
8.79291
7.94862
7.14014
6.4214
2.09198
-22.2575
-20.2136
-17.9425
-15.1267
-12.4863
-9.30765
-6.16646
-2.90884
0.382706
3.55963
6.20143
7.93476
8.84524
9.08717
8.78256
8.13028
7.4484
7.31969
8.19175
7.16923
-22.4477
-20.4366
-18.1829
-15.3592
-12.69
-9.48449
-6.36805
-3.12443
0.147007
3.27737
5.85463
7.52431
8.38958
8.62437
8.4075
7.96184
7.48531
7.35507
7.81393
7.26359
-22.6803
-20.6891
-18.3991
-15.5798
-12.9075
-9.67226
-6.5814
-3.34754
-0.0930758
2.99559
5.52521
7.16287
8.02437
8.33924
8.32572
8.10695
7.73999
7.36438
7.38557
7.30577
-22.8733
-20.8742
-18.5566
-15.7606
-13.1136
-9.85667
-6.80581
-3.57299
-0.334276
2.7203
5.22282
6.86804
7.79303
8.24476
8.42967
8.40629
8.11139
7.61126
7.54545
7.6005
-23.0371
-21.0499
-18.7331
-15.9632
-13.3125
-10.0416
-7.03693
-3.79201
-0.572017
2.46104
4.96447
6.65777
7.69408
8.29446
8.60969
8.75399
8.66376
8.2264
8.19597
8.28001
-23.1887
-21.2158
-18.9005
-16.1648
-13.4884
-10.2302
-7.26175
-3.9965
-0.799632
2.22996
4.76639
6.5423
7.69926
8.44175
8.87447
9.17545
9.43768
9.35591
9.3931
9.49528
-23.2935
-21.344
-19.0339
-16.3339
-13.6177
-10.4147
-7.45935
-4.17906
-1.0073
2.03664
4.63543
6.51055
7.79329
8.68894
9.29478
9.80202
10.3142
10.6281
10.8141
10.9135
-23.3442
-21.4167
-19.1254
-16.4612
-13.7038
-10.5817
-7.61126
-4.33412
-1.18402
1.88867
4.56591
6.53994
7.96131
9.03712
9.87963
10.573
11.206
11.6929
12.0123
12.1318
-23.326
-21.4322
-19.1616
-16.5262
-13.7471
-10.7025
-7.7116
-4.45721
-1.31974
1.78457
4.53432
6.61914
8.17953
9.42658
10.423
11.2018
11.8399
12.3349
12.6871
12.829
-23.2168
-21.3578
-19.1139
-16.507
-13.7392
-10.759
-7.75427
-4.54174
-1.41362
1.71447
4.52136
6.70891
8.36058
9.67187
10.7048
11.5073
12.143
12.6286
12.9877
13.1598
-22.9803
-21.1807
-18.9654
-16.3968
-13.6588
-10.7308
-7.73638
-4.5865
-1.47549
1.66656
4.50779
6.74162
8.41849
9.7361
10.7809
11.6067
12.2736
12.7731
13.1433
13.3401
-22.5789
-20.8635
-18.6884
-16.1665
-13.4769
-10.6127
-7.66411
-4.58983
-1.51262
1.61822
4.45583
6.69669
8.39387
9.73587
10.8099
11.6509
12.3387
12.8519
13.2275
13.4466
-21.9875
-20.3717
-18.2408
-15.7943
-13.1764
-10.4002
-7.52944
-4.54187
-1.52938
1.54592
4.34992
6.59446
8.31723
9.67891
10.7621
11.5988
12.291
12.8155
13.1981
13.4412
-21.1382
-19.6516
-17.6075
-15.252
-12.7323
-10.0738
-7.3171
-4.44264
-1.53342
1.45215
4.20074
6.4222
8.12624
9.47081
10.5427
11.3675
12.0574
12.5938
12.9877
13.252
-19.9922
-18.6639
-16.723
-14.5007
-12.1261
-9.6222
-7.02061
-4.29558
-1.52039
1.34454
3.99369
6.13969
7.77858
9.0754
10.1272
10.9396
11.6193
12.1655
12.5729
12.8583
-18.4758
-17.3431
-15.5695
-13.5303
-11.3383
-9.03593
-6.63052
-4.08998
-1.48766
1.2042
3.69972
5.72907
7.28308
8.50995
9.52274
10.315
10.9702
11.5152
11.9286
12.2304
-16.5622
-15.6778
-14.1078
-12.3015
-10.3578
-8.30377
-6.13347
-3.82176
-1.4442
1.02473
3.32744
5.20308
6.64442
7.76905
8.70147
9.44466
10.0563
10.5811
10.999
11.3138
-14.2872
-13.6773
-12.3718
-10.8383
-9.17114
-7.40357
-5.51945
-3.488
-1.37844
0.827907
2.89839
4.57315
5.85217
6.83519
7.63687
8.27879
8.80327
9.24861
9.61718
9.90384
-11.6669
-11.2954
-10.2776
-9.08329
-7.77937
-6.36874
-4.80551
-3.08338
-1.27084
0.656477
2.4914
3.97056
5.08726
5.93178
6.60339
7.12537
7.52507
7.83388
8.07569
8.26124
-8.932
-8.69117
-7.99173
-7.2072
-6.28898
-5.22556
-4.00377
-2.61789
-1.11344
0.542561
2.14511
3.43923
4.41076
5.12879
5.67845
6.09924
6.38835
6.58352
6.70846
6.79655
-6.32737
-6.16359
-5.82927
-5.38623
-4.77218
-4.038
-3.16993
-2.10493
-0.896157
0.479324
1.82075
2.90586
3.71468
4.293
4.70549
5.00819
5.20097
5.31582
5.35723
5.39689
-4.08443
-3.97898
-3.85127
-3.63654
-3.33608
-2.9239
-2.34351
-1.55819
-0.630136
0.455638
1.53023
2.40749
3.05512
3.5082
3.80808
4.01288
4.13271
4.20772
4.22906
4.25158
-2.42727
-2.38859
-2.33882
-2.21361
-2.16401
-1.93066
-1.55802
-1.02507
-0.358663
0.461888
1.30364
1.99728
2.50144
2.85139
3.07238
3.21287
3.29272
3.366
3.38972
3.42873
-1.39016
-1.40343
-1.40836
-1.33056
-1.32893
-1.11328
-0.894775
-0.559439
-0.106046
0.505811
1.1607
1.70175
2.08737
2.35578
2.52919
2.64287
2.70613
2.79043
2.80707
2.83132
-0.811482
-0.839199
-0.874297
-0.825631
-0.809236
-0.564152
-0.456126
-0.217304
0.111281
0.57202
1.07337
1.49134
1.78849
2.0008
2.1509
2.26157
2.30504
2.38331
2.39387
2.40402
-0.466616
-0.488971
-0.527629
-0.495102
-0.504444
-0.277056
-0.266894
-0.0250367
0.256342
0.613859
0.998236
1.32785
1.56811
1.74378
1.8757
1.98556
1.99751
2.05962
2.06153
2.06637
-0.223574
-0.238167
-0.268025
-0.239692
-0.278425
-0.133513
-0.194937
0.0789513
0.314858
0.603816
0.918988
1.19383
1.3969
1.54079
1.64026
1.73891
1.72779
1.7668
1.76604
1.76909
-0.0289232
-0.0395677
-0.0628864
-0.0270413
-0.0808829
0.0135097
-0.0814157
0.191963
0.325716
0.566528
0.840637
1.07306
1.24056
1.35089
1.40838
1.49075
1.47342
1.49922
1.49833
1.50007
0.129156
0.119572
0.100173
0.135448
0.0908646
0.176196
0.0866696
0.328824
0.340412
0.54588
0.769781
0.952482
1.08069
1.16264
1.18818
1.25817
1.24706
1.26739
1.26672
1.26751
0.241958
0.231147
0.217337
0.240762
0.208538
0.289806
0.222334
0.430376
0.362427
0.546455
0.708855
0.839468
0.933056
0.998482
1.00758
1.06872
1.0637
1.07903
1.07799
1.07779
0.303133
0.290039
0.28099
0.295143
0.267127
0.33165
0.285666
0.458522
0.368794
0.544759
0.656442
0.747815
0.817411
0.874685
0.874328
0.924283
0.921255
0.931267
0.929183
0.927515
0.329093
0.315777
0.30933
0.317924
0.292905
0.340956
0.298695
0.440365
0.357839
0.528384
0.603613
0.67367
0.727925
0.778618
0.772258
0.807645
0.804314
0.810889
0.808398
0.805864
0.33785
0.326218
0.322405
0.328588
0.308019
0.345502
0.306291
0.412964
0.343819
0.501113
0.5455
0.604515
0.647261
0.690125
0.680932
0.705284
0.701939
0.706314
0.704209
0.701684
0.336903
0.32748
0.326332
0.331091
0.315854
0.346201
0.316546
0.389581
0.334824
0.469576
0.485655
0.536365
0.569122
0.604677
0.596093
0.612335
0.610159
0.613364
0.611984
0.609949
0.325516
0.318145
0.318268
0.321671
0.31069
0.334172
0.31272
0.366608
0.327518
0.432675
0.429017
0.472551
0.496685
0.524807
0.520335
0.530981
0.529708
0.531781
0.530771
0.529221
0.304775
0.299174
0.299471
0.301651
0.293576
0.310798
0.295149
0.334704
0.312564
0.392129
0.378291
0.415376
0.432903
0.454446
0.452484
0.459726
0.458829
0.460004
0.459106
0.45792
0.277552
0.273541
0.273749
0.275175
0.269268
0.281605
0.270372
0.299693
0.286365
0.345906
0.332777
0.362554
0.375467
0.391138
0.390204
0.395165
0.394607
0.395262
0.394483
0.393595
0.246581
0.243885
0.243962
0.244977
0.240984
0.249732
0.241953
0.263186
0.254319
0.298327
0.288415
0.311409
0.32108
0.331954
0.331556
0.334941
0.334627
0.334978
0.334313
0.333676
0.213346
0.211593
0.21157
0.212283
0.209658
0.215806
0.210807
0.226167
0.219004
0.251144
0.244671
0.2618
0.268788
0.275998
0.276091
0.278364
0.278181
0.278379
0.277802
0.277345
0.177752
0.176666
0.176576
0.177066
0.175397
0.179582
0.176637
0.187728
0.180889
0.203456
0.201951
0.213082
0.21792
0.222471
0.223212
0.224574
0.224412
0.224473
0.223964
0.223627
0.140388
0.139626
0.139489
0.139777
0.138748
0.141508
0.13982
0.147243
0.141904
0.15747
0.158113
0.165183
0.168536
0.171392
0.171992
0.17277
0.172561
0.172481
0.172035
0.171781
0.101528
0.101096
0.100941
0.101048
0.100393
0.102179
0.100852
0.106262
0.101533
0.112511
0.113612
0.117856
0.11994
0.121605
0.121968
0.122526
0.122265
0.122172
0.121781
0.121584
0.0616051
0.0612578
0.0610774
0.0610911
0.0605656
0.0618808
0.0604311
0.0640862
0.0614595
0.0672324
0.0680865
0.070539
0.0717505
0.0726735
0.0728851
0.0731313
0.0729533
0.0729119
0.0726434
0.072517
0.0207967
0.0205685
0.0204766
0.0205717
0.0200275
0.0207135
0.0199592
0.021188
0.0201627
0.022304
0.0226222
0.0235367
0.0239565
0.0243332
0.0243668
0.0244995
0.0243418
0.024324
0.0240178
0.0239066
11.3686
15.9501
17.0926
18.5351
19.723
20.7932
21.7573
22.6497
23.3895
23.7734
16.3637
18.606
19.3342
20.2626
21.0932
21.8223
22.4515
22.9785
23.318
23.3658
19.1124
20.2244
20.7768
21.3575
21.8883
22.3538
22.7428
23.049
23.2159
23.2395
20.6407
21.3042
21.6749
22.051
22.3764
22.6546
22.8751
23.0329
23.1229
23.1377
21.6187
21.9742
22.208
22.4332
22.6309
22.8035
22.9353
23.0235
23.0643
23.0854
22.1749
22.4089
22.5444
22.6808
22.7967
22.8978
22.9752
23.0305
23.0555
23.0716
22.5505
22.673
22.7457
22.8349
22.9059
22.9748
23.0247
23.0598
23.0728
23.0928
22.7588
22.8523
22.8956
22.9597
23.0045
23.0463
23.0714
23.0964
23.1096
23.1258
22.9165
22.9776
23.0078
23.0455
23.0733
23.0967
23.1139
23.1309
23.1412
23.1583
23.032
23.0658
23.0837
23.1023
23.1215
23.1387
23.1542
23.1724
23.1823
23.2001
23.1186
23.1382
23.152
23.1669
23.1855
23.2021
23.2183
23.2372
23.2477
23.2653
23.2132
23.2318
23.2514
23.2665
23.2825
23.2978
23.3104
23.3211
23.3277
23.3412
23.3338
23.345
23.3612
23.3724
23.3801
23.3882
23.3949
23.4008
23.4031
23.4122
23.44
23.4424
23.4502
23.4552
23.4566
23.4594
23.4651
23.4723
23.4765
23.4877
23.5426
23.5304
23.5238
23.5186
23.5169
23.5184
23.5251
23.5371
23.5516
23.5792
23.6651
23.611
23.5801
23.5616
23.5538
23.5544
23.5632
23.583
23.6141
23.6824
)
;

boundaryField
{
    wall-4
    {
        type            zeroGradient;
    }
    pressure-outlet-7
    {
        type            fixedValue;
        value           uniform 0;
    }
    velocity-inlet-6
    {
        type            zeroGradient;
    }
    velocity-inlet-5
    {
        type            zeroGradient;
    }
    frontAndBackPlanes
    {
        type            empty;
    }
}


// ************************************************************************* //
