/*--------------------------------*- C++ -*----------------------------------*\
| =========                 |                                                 |
| \\      /  F ield         | OpenFOAM: The Open Source CFD Toolbox           |
|  \\    /   O peration     | Version:  2412                                  |
|   \\  /    A nd           | Website:  www.openfoam.com                      |
|    \\/     M anipulation  |                                                 |
\*---------------------------------------------------------------------------*/
FoamFile
{
    version     2.0;
    format      ascii;
    arch        "LSB;label=32;scalar=64";
    class       surfaceScalarField;
    location    "3";
    object      phi;
}
// * * * * * * * * * * * * * * * * * * * * * * * * * * * * * * * * * * * * * //

dimensions      [0 3 -1 0 0 0 0];

oriented        oriented;

internalField   nonuniform List<scalar> 
4262
(
0.0028952
0.217617
0.00486252
0.826686
0.000948727
1.77106
-0.00223452
3.16835
-0.00526189
5.18763
-0.0070724
8.01618
-0.00762748
11.8477
-0.00818446
16.8203
-0.00826378
22.8819
-0.00459142
29.5247
0.000834428
29.5229
0.00270308
22.88
0.00291329
16.8195
0.0036098
11.8464
0.00227028
8.0157
0.000205983
5.18667
-0.002735
3.16811
-0.00661269
1.77102
-0.0036966
0.825737
0.216816
-0.0141403
0.231758
-0.0106566
0.823202
-0.0139259
1.77433
-0.0163506
3.17077
-0.0225869
5.19387
-0.028464
8.02205
-0.0289831
11.8482
-0.0279184
16.8192
-0.0227703
22.8768
-0.0107822
29.5127
0.0012702
29.5109
0.0104559
22.8708
0.0149821
16.815
0.0166757
11.8448
0.0131118
8.01927
0.0100189
5.18976
0.0098209
3.16831
0.00856569
1.77228
0.0132011
0.821102
0.230017
-0.0365656
0.268323
-0.0424384
0.829075
-0.0476367
1.77952
-0.0522052
3.17534
-0.0539143
5.19558
-0.0578269
8.02596
-0.0570481
11.8474
-0.0525916
16.8148
-0.0418371
22.866
-0.0167497
29.4876
0.0099564
29.4842
0.0250461
22.8557
0.0331419
16.8069
0.0372397
11.8407
0.0381018
8.01841
0.0404276
5.18744
0.0396553
3.16908
0.0386359
1.7733
0.0353511
0.824387
0.265368
-0.0575633
0.325886
-0.0867397
0.858251
-0.0896063
1.78239
-0.104836
3.19057
-0.102464
5.1932
-0.0935947
8.0171
-0.0920709
11.8459
-0.0777665
16.8005
-0.0590674
22.8473
-0.0212875
29.4498
0.0143293
29.4486
0.0374517
22.8326
0.0586014
16.7858
0.0667022
11.8326
0.0813432
8.00377
0.0873043
5.18147
0.0775632
3.17882
0.0797784
1.77108
0.0542069
0.849958
0.319575
-0.0606452
0.386532
-0.119079
0.916685
-0.11046
1.77377
-0.132668
3.21278
-0.156021
5.21656
-0.152486
8.01356
-0.144221
11.8376
-0.115669
16.7719
-0.0821411
22.8138
-0.0269918
29.3947
0.0267311
29.3948
0.0655148
22.7938
0.10072
16.7506
0.117895
11.8154
0.128306
7.99335
0.11173
5.19805
0.0976587
3.19289
0.111881
1.75686
0.0577668
0.904073
0.377342
-0.0588722
0.445404
-0.140339
0.998152
-0.13351
1.76694
-0.141881
3.22115
-0.191532
5.26621
-0.217071
8.0391
-0.209495
11.8301
-0.178334
16.7408
-0.122876
22.7583
-0.034726
29.3065
0.0547937
29.3053
0.118286
22.7303
0.158319
16.7105
0.17543
11.7983
0.159093
8.00969
0.120776
5.23637
0.120932
3.19273
0.134091
1.7437
0.0569414
0.981222
0.434283
-0.0689995
0.514403
-0.164229
1.09338
-0.181236
1.78395
-0.181829
3.22175
-0.232707
5.31709
-0.269315
8.07571
-0.263124
11.8239
-0.239613
16.7172
-0.166987
22.6857
-0.0409724
29.1805
0.0869091
29.1774
0.16944
22.6477
0.205164
16.6748
0.223574
11.7799
0.200253
8.03301
0.160607
5.27601
0.167513
3.18583
0.155688
1.75553
0.0647081
1.0722
0.498992
-0.094344
0.608747
-0.215587
1.21463
-0.285593
1.85395
-0.290242
3.22639
-0.30258
5.32942
-0.332135
8.10526
-0.327845
11.8196
-0.30089
16.6903
-0.220068
22.6049
-0.0490213
29.0095
0.123332
29.0051
0.219627
22.5515
0.26235
16.6321
0.28218
11.76
0.267685
8.04751
0.266934
5.27677
0.271842
3.18092
0.207862
1.81951
0.0905628
1.1895
0.589554
-0.124509
0.733256
-0.280562
1.37068
-0.410603
1.984
-0.440838
3.25663
-0.417246
5.30583
-0.430952
8.11897
-0.418759
11.8074
-0.356349
16.6279
-0.267133
22.5156
-0.056884
28.7992
0.157448
28.7907
0.263957
22.4449
0.342564
16.5535
0.372067
11.7305
0.375067
8.04451
0.413296
5.23854
0.394291
3.19992
0.270984
1.94281
0.120471
1.34001
0.710025
-0.146507
0.879763
-0.332477
1.55665
-0.505576
2.15709
-0.581889
3.33294
-0.565928
5.28987
-0.557017
8.11006
-0.522968
11.7733
-0.41692
16.5218
-0.287539
22.3863
-0.065575
28.5773
0.158564
28.5666
0.306648
22.2969
0.435516
16.4246
0.491054
11.675
0.520406
8.01516
0.554251
5.20469
0.488234
3.26594
0.321179
2.10987
0.141396
1.5198
0.851421
-0.164441
1.0442
-0.379621
1.77183
-0.593608
2.37108
-0.725787
3.46512
-0.749036
5.31312
-0.731745
8.09277
-0.675509
11.7171
-0.553412
16.3997
-0.359613
22.1925
-0.0780158
28.2957
0.206129
28.2825
0.423863
22.0791
0.574105
16.2744
0.65538
11.5937
0.697642
7.97289
0.69199
5.21034
0.571764
3.38617
0.367174
2.31446
0.158408
1.72856
1.00983
-0.180245
1.22445
-0.425986
2.01757
-0.681818
2.62691
-0.873715
3.65702
-0.953607
5.39301
-0.938183
8.07734
-0.865719
11.6446
-0.758162
16.2922
-0.503043
21.9374
-0.0932068
27.8858
0.325828
27.8634
0.602944
21.802
0.743229
16.1341
0.852456
11.4845
0.89588
7.92947
0.835711
5.27051
0.656068
3.56581
0.409308
2.56122
0.171565
1.96631
1.18139
-0.191011
1.41546
-0.463754
2.29031
-0.760085
2.92324
-1.00773
3.90467
-1.13861
5.52389
-1.12477
8.0635
-1.0329
11.5528
-0.90417
16.1634
-0.611199
21.6444
-0.108899
27.3835
0.406003
27.3485
0.719159
21.4889
0.893427
15.9598
1.03059
11.3473
1.07041
7.88965
0.95776
5.38316
0.724674
3.7989
0.440579
2.84531
0.177521
2.22937
1.35892
-0.189627
1.60509
-0.48001
2.5807
-0.803817
3.24705
-1.09657
4.19742
-1.28523
5.71255
-1.30395
8.08222
-1.19968
11.4485
-1.0003
15.9641
-0.665667
21.3098
-0.135261
26.8531
0.412316
26.8009
0.778229
21.1229
1.03692
15.7011
1.19405
11.1902
1.20997
7.87373
1.04468
5.54845
0.766147
4.07743
0.453678
3.15778
0.175674
2.50737
1.53459
-0.186241
1.79133
-0.487964
2.88242
-0.833425
3.59251
-1.16725
4.53124
-1.41673
5.96203
-1.49894
8.16443
-1.41755
11.3671
-1.14369
15.6902
-0.736453
20.9025
-0.163931
26.2806
0.428783
26.2082
0.87914
20.6726
1.21426
15.366
1.35245
11.052
1.31015
7.91603
1.08523
5.77337
0.772094
4.39057
0.444481
3.48539
0.161794
2.79006
1.69638
-0.170936
1.96226
-0.472699
3.18418
-0.830848
3.95066
-1.19617
4.89656
-1.50484
6.2707
-1.66262
8.32222
-1.63054
11.335
-1.3301
15.3898
-0.846169
20.4186
-0.20247
25.6369
0.464374
25.5414
1.01038
20.1266
1.37064
15.0057
1.46714
10.9555
1.35853
8.02465
1.08375
6.04814
0.748007
4.72631
0.416814
3.81659
0.137366
3.0695
1.83375
-0.157563
2.11983
-0.45556
3.48218
-0.808932
4.30403
-1.18211
5.26975
-1.52594
6.61453
-1.7439
8.54017
-1.74532
11.3364
-1.46903
15.1135
-0.943691
19.8932
-0.245456
24.9387
0.486728
24.8092
1.09335
19.5199
1.43229
14.6668
1.48415
10.9036
1.31539
8.19341
1.01477
6.34876
0.679584
5.0615
0.363237
4.13293
0.103283
3.32946
1.93703
-0.125994
2.24582
-0.396657
3.75284
-0.73402
4.6414
-1.10472
5.64045
-1.46542
6.97522
-1.72877
8.80352
-1.7691
11.3768
-1.55021
14.8946
-1.03209
19.3751
-0.309642
24.2162
0.461993
24.0376
1.07808
18.9039
1.38927
14.3556
1.39958
10.8933
1.1968
8.3962
0.899038
6.64652
0.586227
5.37431
0.299173
4.41999
0.0684222
3.56021
2.00545
-0.118089
2.36391
-0.369852
4.00461
-0.670446
4.94199
-1.00487
5.97487
-1.34667
7.31703
-1.63481
9.09166
-1.74102
11.483
-1.58594
14.7395
-1.10882
18.898
-0.384174
23.4916
0.393724
23.2597
0.969187
18.3284
1.23312
14.0917
1.2067
10.9197
0.997205
8.60569
0.725186
6.91854
0.452891
5.64661
0.215212
4.65767
0.0300481
3.74537
2.0355
-0.0896973
2.45361
-0.302776
4.21769
-0.573407
5.21262
-0.885353
6.28681
-1.20875
7.64042
-1.49092
9.37383
-1.65247
11.6446
-1.57205
14.6591
-1.16427
18.4902
-0.480589
22.8079
0.256992
22.5221
0.759909
17.8255
0.953135
13.8985
0.9128
10.9601
0.745634
8.77286
0.538364
7.12581
0.331759
5.85321
0.14724
4.84218
0.00749417
3.88512
2.043
-0.104753
2.55836
-0.297436
4.41037
-0.528135
5.44332
-0.791396
6.55008
-1.07513
7.92415
-1.3492
9.64791
-1.53778
11.8331
-1.52271
14.644
-1.2018
18.1693
-0.603864
22.2099
0.0611687
21.8571
0.482099
17.4046
0.634236
13.7463
0.606686
10.9876
0.48711
8.89244
0.335553
7.27737
0.187053
6.00171
0.0627579
4.96648
-0.00944545
3.95732
2.03355
-0.0954263
2.65379
-0.26647
4.58141
-0.480887
5.65774
-0.73214
6.80133
-1.00393
8.19594
-1.26426
9.90824
-1.45987
12.0287
-1.49504
14.6792
-1.26416
17.9384
-0.767155
21.7129
-0.209983
21.2999
0.147782
17.0468
0.28268
13.6114
0.281616
10.9887
0.218281
8.95577
0.138315
7.35733
0.0585406
6.08149
-0.00841404
5.03343
-0.0272046
3.97611
2.00635
-0.132597
2.78638
-0.302343
4.75116
-0.500985
5.85638
-0.734667
7.03501
-0.994596
8.45587
-1.25223
10.1659
-1.45988
12.2364
-1.52603
14.7453
-1.37338
17.7858
-0.969224
21.3088
-0.508262
20.8389
-0.203926
16.7425
-0.0653812
13.4729
-0.0195419
10.9428
-0.0225266
8.95875
-0.0475551
7.38236
-0.0740392
6.10797
-0.0856108
5.04501
-0.0679821
3.95848
1.93836
-0.172961
2.95934
-0.349367
4.92757
-0.566062
6.07307
-0.823846
7.29279
-1.09067
8.7227
-1.34347
10.4187
-1.54403
12.437
-1.63179
14.8331
-1.54297
17.697
-1.21598
20.9818
-0.828455
20.4514
-0.554409
16.4684
-0.401508
13.32
-0.315057
10.8564
-0.259502
8.9032
-0.215243
7.3381
-0.178513
6.07124
-0.143434
5.00993
-0.0949185
3.90997
1.84345
-0.280783
3.24013
-0.483083
5.12987
-0.754204
6.34419
-1.03524
7.57383
-1.30353
8.99098
-1.54696
10.6621
-1.73748
12.6275
-1.83181
14.9274
-1.7776
17.6427
-1.50363
20.7078
-1.16358
20.1114
-0.904433
16.2093
-0.726738
13.1423
-0.596748
10.7264
-0.496929
8.80338
-0.411846
7.25302
-0.332621
5.99201
-0.258869
4.93618
-0.144243
3.79534
1.6992
-0.394199
3.63433
-0.772301
5.50797
-1.12083
6.69272
-1.39776
7.85076
-1.65704
9.25026
-1.88663
10.8917
-2.0554
12.7963
-2.13177
15.0038
-2.0809
17.5919
-1.82694
20.4539
-1.51121
19.7956
-1.25379
15.9518
-1.05112
12.9396
-0.88317
10.5585
-0.740457
8.66067
-0.619479
7.13204
-0.509236
5.88177
-0.377732
4.80467
-0.191565
3.60918
1.50764
-0.267786
3.90211
-0.581783
5.82196
-0.852531
6.96347
-1.15535
8.15357
-1.46194
9.55686
-1.74489
11.1746
-1.98049
13.0319
-2.16198
15.1853
-2.24326
17.6732
-2.12975
20.3404
-1.90185
19.5677
-1.66147
15.7115
-1.42704
12.7052
-1.19975
10.3312
-0.97213
8.43305
-0.748237
6.90815
-0.540647
5.67418
-0.347303
4.61133
-0.153319
3.41519
1.35432
-0.117788
4.0199
-0.244298
5.94847
-0.460277
7.17945
-0.715333
8.40863
-0.965522
9.80705
-1.1877
11.3968
-1.38365
13.2278
-1.54119
15.3428
-1.61012
17.7421
-1.53192
20.2622
-1.35095
19.3868
-1.14083
15.5013
-0.922049
12.4864
-0.711986
10.1211
-0.521944
8.24301
-0.349686
6.73589
-0.190827
5.51532
-0.0658476
4.48635
0.00621645
3.34313
1.36054
-0.0861688
4.10607
-0.154413
6.01672
-0.283407
7.30844
-0.461075
8.5863
-0.642859
9.98883
-0.821069
11.575
-0.990172
13.3969
-1.12233
15.475
-1.1778
17.7976
-1.12862
20.213
-0.985714
19.2438
-0.811854
15.3275
-0.633404
12.3079
-0.465979
9.95368
-0.320552
8.09758
-0.20145
6.61679
-0.10186
5.41573
-0.00766401
4.39215
0.0413486
3.29412
1.40188
-0.0463064
4.15237
-0.149817
6.12023
-0.245911
7.40454
-0.339849
8.68023
-0.450475
10.0995
-0.591874
11.7164
-0.730808
13.5359
-0.839181
15.5833
-0.887157
17.8455
-0.859273
20.1851
-0.748139
19.1327
-0.61334
15.1927
-0.480654
12.1752
-0.356738
9.82976
-0.245543
7.98638
-0.146168
6.51741
-0.056733
5.3263
0.0146394
4.32078
0.0517446
3.25701
1.45363
-0.00417416
4.15655
-0.130829
6.24688
-0.220385
7.49409
-0.282635
8.74248
-0.355569
10.1724
-0.458556
11.8194
-0.566446
13.6437
-0.653676
15.6706
-0.695391
17.8872
-0.682755
20.1725
-0.601855
19.0518
-0.500415
15.0912
-0.399084
12.0739
-0.300059
9.73074
-0.201595
7.88792
-0.107817
6.42363
-0.024022
5.2425
0.0384435
4.25831
0.0523925
3.24306
1.50602
-0.00480871
4.16136
-0.079676
6.32175
-0.150104
7.56452
-0.212899
8.80528
-0.294238
10.2537
-0.378463
11.9036
-0.463373
13.7287
-0.534458
15.7417
-0.572192
17.925
-0.571982
20.1722
-0.512619
18.9925
-0.427696
15.0063
-0.335391
11.9816
-0.244696
9.64004
-0.16038
7.8036
-0.0892217
6.35248
-0.0329613
5.18624
0.0177545
4.2076
0.0344951
3.22632
1.54052
-0.0105588
4.17192
-0.0788562
6.39005
-0.133117
7.61878
-0.181992
8.85415
-0.255467
10.3272
-0.328089
11.9763
-0.398428
13.799
-0.458984
15.8022
-0.494474
17.9605
-0.500787
20.1786
-0.450722
18.9424
-0.372848
14.9284
-0.289215
11.898
-0.213252
9.56408
-0.147759
7.73811
-0.0884994
6.29322
-0.0397678
5.13751
-0.0067813
4.17461
0.00251155
3.21703
1.54303
0.0232921
4.14862
-0.0204318
6.43377
-0.0816379
7.67999
-0.161269
8.93378
-0.233356
10.3993
-0.298917
12.0418
-0.358873
13.8589
-0.41055
15.8539
-0.443294
17.9932
-0.453073
20.1883
-0.412356
18.9017
-0.347729
14.8638
-0.278216
11.8285
-0.209309
9.49517
-0.139533
7.66834
-0.0805569
6.23424
-0.0436576
5.10061
-0.0163041
4.14726
-0.0108438
3.21157
1.53218
0.00422615
4.1444
-0.0119302
6.44993
-0.0545528
7.72261
-0.13066
9.00989
-0.203351
10.472
-0.270822
12.1093
-0.328879
13.917
-0.377103
15.9021
-0.409534
18.0256
-0.425055
20.2039
-0.394241
18.8709
-0.334197
14.8038
-0.262268
11.7565
-0.197662
9.43057
-0.159392
7.63007
-0.127696
6.20254
-0.0869866
5.0599
-0.0378042
4.09808
-0.0108827
3.18465
1.5213
0.0252639
4.11913
-0.016543
6.49174
-0.0623318
7.7684
-0.118199
9.06576
-0.179477
10.5333
-0.242037
12.1718
-0.299879
13.9748
-0.349885
15.9521
-0.386422
18.0622
-0.410148
20.2276
-0.39102
18.8517
-0.344063
14.7568
-0.2917
11.7042
-0.235521
9.37439
-0.155003
7.54955
-0.0774767
6.12502
-0.033267
5.01569
-0.0214963
4.08631
-0.0140103
3.17716
1.50729
0.0136833
4.10545
-0.0226554
6.52807
-0.0673701
7.81311
-0.112316
9.1107
-0.165062
10.586
-0.219454
12.2262
-0.274129
14.0295
-0.326561
16.0046
-0.369775
18.1054
-0.403561
20.2614
-0.398041
18.8462
-0.35746
14.7162
-0.292521
11.6392
-0.226665
9.30853
-0.195559
7.51844
-0.171851
6.10131
-0.134995
4.97884
-0.0708333
4.02214
-0.0230565
3.12938
1.48423
0.0109076
4.09454
-0.0171248
6.55611
-0.0515283
7.84752
-0.0979694
9.15715
-0.146631
10.6347
-0.197988
12.2776
-0.252641
14.0842
-0.30698
16.0589
-0.356375
18.1548
-0.399909
20.3049
-0.408269
18.8546
-0.382374
14.6903
-0.33876
11.5956
-0.282111
9.25188
-0.200694
7.43703
-0.118475
6.01909
-0.0625953
4.92296
-0.0464694
4.00602
-0.0302386
3.11315
1.454
0.00281043
4.09173
-0.0333854
6.5923
-0.059686
7.87382
-0.0894762
9.18694
-0.13053
10.6757
-0.180524
12.3276
-0.234809
14.1385
-0.290391
16.1145
-0.34476
18.2092
-0.396674
20.3568
-0.419474
18.8774
-0.406156
14.677
-0.360745
11.5502
-0.294392
9.18553
-0.246484
7.38912
-0.2082
5.98081
-0.161921
4.87668
-0.0945136
3.93861
-0.0367767
3.05542
1.41722
0.00764537
4.08409
-0.0185769
6.61852
-0.0488615
7.9041
-0.0847877
9.22286
-0.12239
10.7133
-0.167356
12.3726
-0.219456
14.1906
-0.275467
16.1705
-0.333746
18.2674
-0.39249
20.4156
-0.429294
18.9142
-0.43295
14.6807
-0.405345
11.5226
-0.358706
9.13889
-0.278414
7.30883
-0.188334
5.89073
-0.121876
4.81022
-0.0936375
3.91037
-0.0543351
3.01611
1.36288
0.00607799
4.07801
-0.016529
6.64113
-0.0393825
7.92696
-0.0773185
9.2608
-0.114845
10.7509
-0.157444
12.4152
-0.20682
14.2399
-0.262185
16.2259
-0.323227
18.3285
-0.388105
20.4804
-0.437118
18.9632
-0.456534
14.7001
-0.438366
11.5044
-0.388064
9.08859
-0.33296
7.25372
-0.282346
5.84011
-0.215579
4.74345
-0.126916
3.82171
-0.0562063
2.9454
1.30668
0.00796222
4.07005
-0.0160742
6.66517
-0.0383984
7.94928
-0.0712634
9.29366
-0.107565
10.7872
-0.147945
12.4555
-0.194957
14.2869
-0.249531
16.2804
-0.312613
18.3916
-0.382316
20.5501
-0.441182
19.0221
-0.475735
14.7347
-0.478219
11.5069
-0.454168
9.06454
-0.3938
7.19335
-0.300679
5.74699
-0.213756
4.65653
-0.158726
3.76668
-0.0832521
2.86993
1.22343
0.00664797
4.0634
-0.0131327
6.68495
-0.0323364
7.96848
-0.0668684
9.32819
-0.100866
10.8212
-0.139201
12.4939
-0.184222
14.332
-0.237867
16.3341
-0.301666
18.4554
-0.375387
20.6239
-0.444307
19.091
-0.491472
14.7818
-0.510414
11.5259
-0.488929
9.04305
-0.445325
7.14975
-0.397628
5.69929
-0.315645
4.57455
-0.187807
3.63884
-0.082526
2.76465
1.1409
0.0104291
4.05297
-0.00903546
6.70441
-0.0307744
7.99022
-0.0630231
9.36044
-0.0942257
10.8524
-0.130062
12.5297
-0.173347
14.3753
-0.225923
16.3866
-0.289813
18.5192
-0.366883
20.7009
-0.443692
19.1678
-0.499747
14.8379
-0.534155
11.5603
-0.549939
9.05884
-0.527644
7.12745
-0.462848
5.6345
-0.372723
4.48442
-0.267983
3.5341
-0.125165
2.62183
1.01573
0.00325206
4.04972
-0.0136662
6.72133
-0.0277232
8.00428
-0.0570917
9.38981
-0.0861035
10.8814
-0.120853
12.5645
-0.162888
14.4173
-0.214185
16.4379
-0.27729
18.5824
-0.356628
20.7803
-0.440839
19.252
-0.510124
14.9072
-0.557937
11.6081
-0.573074
9.07397
-0.564483
7.11886
-0.538063
5.60808
-0.469914
4.41628
-0.335946
3.40013
-0.168205
2.45409
0.847529
0.00712086
4.0426
-0.0109494
6.7394
-0.0287474
8.02208
-0.0531059
9.41417
-0.0783247
10.9066
-0.112263
12.5984
-0.153168
14.4582
-0.203346
16.4881
-0.266043
18.6451
-0.347471
20.8617
-0.437538
19.3421
-0.515496
14.9851
-0.576463
11.6691
-0.619455
9.11696
-0.64394
7.14335
-0.632187
5.59632
-0.594859
4.37895
-0.490565
3.29584
-0.193225
2.15675
0.654304
0.0033062
4.03929
-0.0106083
6.75332
-0.0268178
8.03829
-0.0521047
9.43946
-0.0777498
10.9322
-0.110206
12.6309
-0.152271
14.5003
-0.205074
16.5409
-0.27271
18.7127
-0.363638
20.9526
-0.469578
19.448
-0.570593
15.0861
-0.661197
11.7597
-0.725701
9.18147
-0.752992
7.17064
-0.758049
5.60138
-0.724822
4.34572
-0.692496
3.26351
-0.50899
1.97325
0.993782
-0.848468
0.000878019
4.03841
-0.00887704
6.76307
-0.0266661
8.05608
-0.0502397
9.46303
-0.0755526
10.9575
-0.104969
12.6603
-0.14639
14.5417
-0.199331
16.5939
-0.269138
18.7825
-0.36552
21.049
-0.482103
19.5646
-0.599143
15.2032
-0.711873
11.8724
-0.814435
9.28403
-0.91268
7.26889
-1.01486
5.70356
-1.11506
4.44593
-1.05486
3.20331
-0.932693
1.85108
1.32899
-1.2679
-0.00345067
4.04186
-0.00955048
6.76917
-0.0245822
8.07111
-0.0443666
9.48281
-0.0685734
10.9817
-0.0994297
12.6911
-0.140482
14.5827
-0.193737
16.6471
-0.265392
18.8541
-0.366508
21.1501
-0.493649
19.6917
-0.630258
15.3398
-0.774855
12.017
-0.921916
9.43109
-1.05867
7.40564
-1.16826
5.81316
-1.20844
4.48611
-1.09718
3.09204
-1.28705
2.04095
1.66246
-1.62052
0.00193894
4.03992
-0.0120521
6.78316
-0.022003
8.08106
-0.0397439
9.50056
-0.0637281
11.0057
-0.0934945
12.7209
-0.133653
14.6229
-0.186828
16.7003
-0.259875
18.9272
-0.365547
21.2558
-0.502052
19.8282
-0.65429
15.492
-0.822153
12.1848
-1.00453
9.61347
-1.20201
7.60311
-1.37565
5.9868
-1.41152
4.52197
-1.41245
3.09298
-1.66655
2.29505
1.91008
-1.91417
0.00880717
4.03112
-0.00502459
6.79699
-0.0232334
8.09927
-0.0421278
9.51945
-0.0640052
11.0276
-0.0885647
12.7455
-0.127503
14.6618
-0.180088
16.7529
-0.253923
19.001
-0.36331
21.3652
-0.507759
19.9727
-0.675812
15.6601
-0.871314
12.3804
-1.08535
9.82751
-1.28619
7.80395
-1.41332
6.11393
-1.44122
4.54987
-1.57609
3.22784
-1.84933
2.56829
2.11994
-2.0592
0.00190956
4.02921
-0.00723838
6.80614
-0.0202428
8.11227
-0.0384004
9.53761
-0.0589758
11.0482
-0.0863174
12.7728
-0.125424
14.7009
-0.177714
16.8052
-0.252556
19.0759
-0.366056
21.4787
-0.517459
20.1241
-0.696108
15.8387
-0.903477
12.5877
-1.12299
10.047
-1.33258
8.01355
-1.54811
6.32946
-1.7109
4.71266
-1.93315
3.45009
-2.18139
2.81653
2.2602
-2.32165
-0.00247807
4.03169
-0.00845305
6.81212
-0.0156913
8.11951
-0.0337287
9.55564
-0.0531777
11.0676
-0.0868149
12.8064
-0.126506
14.7406
-0.179808
16.8585
-0.256111
19.1522
-0.373655
21.5962
-0.530849
20.2813
-0.715838
16.0237
-0.933761
12.8056
-1.17918
10.2924
-1.41356
8.24792
-1.5547
6.4706
-1.68355
4.84151
-1.96064
3.72718
-2.19805
3.05394
2.46166
-2.39951
0.0114847
4.0202
-0.00578836
6.82939
-0.0179077
8.13163
-0.0405304
9.57827
-0.0584035
11.0855
-0.0885014
12.8365
-0.127465
14.7796
-0.181166
16.9122
-0.258301
19.2293
-0.379406
21.7173
-0.541808
20.4437
-0.727756
16.2097
-0.941425
13.0193
-1.18964
10.5407
-1.44261
8.50089
-1.64419
6.67219
-1.89476
5.09208
-2.33438
4.1668
-2.73816
3.45772
2.75849
-3.03499
0.00974575
4.01046
-0.0035473
6.84268
-0.019002
8.14709
-0.0420738
9.60134
-0.0631345
11.1066
-0.0904168
12.8638
-0.129149
14.8183
-0.182705
16.9657
-0.260294
19.3069
-0.38317
21.8402
-0.55031
20.6108
-0.739157
16.3985
-0.944643
13.2248
-1.19241
10.7884
-1.48413
8.79261
-1.74068
6.92874
-1.96306
5.31446
-2.40115
4.60489
-2.91368
3.97025
2.97288
-3.12807
3.87586e-05
4.01042
-0.00699426
6.84971
-0.0159308
8.15602
-0.0353356
9.62074
-0.0594078
11.1306
-0.0900491
12.8945
-0.129491
14.8578
-0.182985
17.0192
-0.259985
19.3839
-0.382469
21.9627
-0.550637
20.779
-0.738009
16.5859
-0.943057
13.4298
-1.15974
11.0051
-1.41468
9.04755
-1.69346
7.20753
-2.1777
5.79869
-2.57427
5.00145
-3.11151
4.50749
3.77263
-3.91125
0.00506137
4.00536
-0.00579307
6.86057
-0.017958
8.16819
-0.0383956
9.64118
-0.0603281
11.1526
-0.0905599
12.9247
-0.128526
14.8957
-0.181045
17.0717
-0.254988
19.4578
-0.370511
22.0782
-0.524201
20.9327
-0.694993
16.7567
-0.887214
13.6221
-1.08523
11.2031
-1.27301
9.23534
-1.50492
7.43944
-1.8797
6.17347
-2.09134
5.2131
-1.53283
3.94899
2.23979
0.0129416
3.99241
-0.00255024
6.87606
-0.0186591
8.1843
-0.0411398
9.66366
-0.0629966
11.1744
-0.0918263
12.9535
-0.129984
14.9339
-0.184631
17.1264
-0.260452
19.5337
-0.377959
22.1957
-0.529963
21.0847
-0.696775
16.9235
-0.876503
13.8018
-1.05286
11.3795
-1.1637
9.34618
-1.23428
7.51002
-1.18097
6.12015
-1.061
5.09313
-0.738052
3.62604
1.50174
0.00638065
3.98603
-0.00507206
6.88751
-0.014855
8.19408
-0.0355978
9.68441
-0.059793
11.1986
-0.089757
12.9835
-0.128963
14.9731
-0.184862
17.1823
-0.26036
19.6092
-0.377335
22.3127
-0.525667
21.233
-0.680564
17.0784
-0.835773
13.957
-0.959352
11.503
-0.990841
9.37767
-0.982722
7.5019
-1.00753
6.14496
-0.997082
5.08268
-0.827166
3.45612
0.674575
0.0127686
3.97326
0.00101098
6.89927
-0.0110061
8.2061
-0.0321183
9.70552
-0.0563222
11.2228
-0.085105
13.0123
-0.125949
15.0139
-0.181065
17.2374
-0.253917
19.682
-0.366909
22.4257
-0.506072
21.3722
-0.639283
17.2116
-0.746735
14.0645
-0.824295
11.5806
-0.840754
9.39413
-0.859946
7.52109
-0.910033
6.19505
-0.850619
5.02327
-0.411204
3.01671
0.263372
0.0153976
3.95787
0.00482862
6.90984
-0.00750375
8.21843
-0.0292696
9.72728
-0.0525236
11.2461
-0.078697
13.0384
-0.12127
15.0565
-0.171751
17.2879
-0.240895
19.7512
-0.345987
22.5308
-0.468294
21.4945
-0.568489
17.3118
-0.623359
14.1193
-0.684328
11.6416
-0.72049
9.43029
-0.746879
7.54748
-0.716899
6.16507
-0.531686
4.83806
-0.168998
2.65402
0.0943732
0.0212001
3.93667
0.0114171
6.91962
-0.00217887
8.23202
-0.0226737
9.74778
-0.0443137
11.2677
-0.0682828
13.0624
-0.111444
15.0997
-0.154438
17.3309
-0.219448
19.8162
-0.311642
22.623
-0.405525
21.5884
-0.473005
17.3793
-0.512856
14.1592
-0.534776
11.6635
-0.550387
9.4459
-0.546225
7.54332
-0.445115
6.06396
-0.2569
4.64984
-0.0852769
2.4824
0.0090962
0.0186871
3.91798
0.014374
6.92394
0.00647625
8.23992
-0.014809
9.76906
-0.02998
11.2829
-0.0546927
13.0871
-0.0949479
15.1399
-0.129598
17.3655
-0.189528
19.8761
-0.265342
22.6988
-0.332178
21.6552
-0.371362
17.4184
-0.393063
14.1809
-0.357938
11.6284
-0.319806
9.40777
-0.241227
7.46474
-0.141125
5.96385
0.0087901
4.49993
0.0829573
2.40823
0.0920535
0.0269774
3.891
0.0236419
6.92727
0.0161502
8.24741
-0.00313694
9.78835
-0.00813982
11.2879
-0.0374142
13.1164
-0.0679462
15.1705
-0.0967269
17.3943
-0.149108
19.9285
-0.205832
22.7555
-0.247796
21.6972
-0.261545
17.4322
-0.250088
14.1694
-0.176008
11.5543
-0.0819181
9.31368
0.0507076
7.33212
0.201162
5.8134
0.272865
4.42822
0.201589
2.4795
0.293643
0.0252622
3.86574
0.0296093
6.92292
0.029835
8.24719
0.0142718
9.80391
0.0142674
11.2879
-0.0172501
13.1479
-0.0277245
15.1809
-0.0577722
17.4244
-0.0987173
19.9694
-0.136676
22.7935
-0.15503
21.7155
-0.140512
17.4177
-0.0875711
14.1165
0.00783621
11.4589
0.112331
9.20918
0.216799
7.22765
0.340042
5.69016
0.429769
4.3385
0.303042
2.60623
0.596685
0.0389033
3.82684
0.0454606
6.91637
0.0477606
8.24489
0.0422132
9.80946
0.0381227
11.292
0.0184063
13.1676
0.0209137
15.1784
-0.0121539
17.4574
-0.0361099
19.9934
-0.0569879
22.8144
-0.0539939
21.7125
-0.0159224
17.3796
0.0666509
14.0339
0.159612
11.3659
0.237195
9.1316
0.299379
7.16547
0.371221
5.61831
0.430352
4.27937
0.31552
2.72106
0.912204
0.0420548
3.78478
0.0607482
6.89767
0.0735915
8.23204
0.0742816
9.80877
0.0751068
11.2912
0.0743434
13.1684
0.0705216
15.1822
0.0597243
17.4682
0.043333
20.0098
0.0354511
22.8222
0.0580944
21.6899
0.113926
17.3238
0.18554
13.9623
0.266644
11.2848
0.333119
9.06512
0.36966
7.12892
0.399781
5.58819
0.400626
4.27852
0.270169
2.85152
1.18237
0.0641644
3.72062
0.0869673
6.87487
0.103038
8.21597
0.112009
9.7998
0.125563
11.2776
0.137987
13.156
0.140687
15.1795
0.148536
17.4604
0.143494
20.0148
0.149076
22.8167
0.172425
21.6665
0.223359
17.2728
0.288998
13.8967
0.366365
11.2074
0.428351
9.00314
0.442565
7.11471
0.433338
5.59742
0.379727
4.33213
0.22365
3.0076
1.40602
0.0738239
3.64679
0.113423
6.83527
0.143813
8.18558
0.166449
9.77717
0.190664
11.2534
0.210411
13.1362
0.228517
15.1614
0.249122
17.4398
0.257107
20.0068
0.269544
22.8042
0.290875
21.6452
0.338282
17.2254
0.405377
13.8296
0.472459
11.1404
0.519124
8.95647
0.499057
7.13478
0.45082
5.64566
0.359742
4.42321
0.19192
3.17542
1.59794
0.102274
3.54452
0.151976
6.78557
0.193617
8.14394
0.23091
9.73987
0.271013
11.2133
0.305981
13.1012
0.347373
15.1201
0.374783
17.4124
0.394276
19.9873
0.410586
22.7879
0.429878
21.6259
0.462047
17.1933
0.506207
13.7854
0.541893
11.1047
0.567561
8.9308
0.520534
7.1818
0.44857
5.71762
0.338878
4.5329
0.17575
3.33855
1.77369
0.123192
3.42133
0.200263
6.7085
0.26185
8.08236
0.319992
9.68173
0.377266
11.156
0.425708
13.0528
0.486871
15.0589
0.524917
17.3743
0.557673
19.9546
0.574811
22.7708
0.578632
21.6221
0.578935
17.193
0.583238
13.7811
0.582512
11.1054
0.58799
8.92533
0.532671
7.23712
0.442931
5.80736
0.318138
4.65769
0.149658
3.50703
1.92335
0.164509
3.25682
0.265694
6.60731
0.352634
7.99542
0.434005
9.60036
0.513457
11.0766
0.587014
12.9792
0.667596
14.9783
0.722523
17.3194
0.766191
19.9109
0.775037
22.7619
0.74834
21.6488
0.707518
17.2338
0.663871
13.8247
0.613526
11.1558
0.568336
8.97052
0.494819
7.31064
0.395036
5.90715
0.273789
4.77894
0.114628
3.66619
2.03798
0.217137
3.03968
0.36604
6.45841
0.479988
7.88147
0.588756
9.49159
0.693791
10.9715
0.79396
12.8791
0.894812
14.8775
0.96984
17.2444
1.02467
19.8561
1.02409
22.7625
0.970373
21.7025
0.888403
17.3158
0.797363
13.9158
0.696904
11.2562
0.587143
9.08028
0.493227
7.40456
0.375026
6.02535
0.253226
4.90074
0.0964224
3.82299
2.1344
0.293988
2.74569
0.493954
6.25844
0.655005
7.72042
0.803872
9.34272
0.938083
10.8373
1.07397
12.7432
1.20258
14.7488
1.29786
17.1491
1.36454
19.7894
1.36027
22.7668
1.2812
21.7816
1.15281
17.4441
1.0079
14.0607
0.849926
11.4142
0.662132
9.26807
0.516708
7.54998
0.369558
6.1725
0.236986
5.03331
0.0913356
3.96864
2.22574
0.418686
2.32701
0.70506
5.97207
0.909349
7.51613
1.0947
9.15737
1.26432
10.6677
1.44065
12.5669
1.59968
14.5898
1.72508
17.0237
1.81166
19.7028
1.81103
22.7674
1.71031
21.8823
1.54189
17.6126
1.34629
14.2563
1.14128
11.6192
0.90469
9.50466
0.703821
7.75085
0.510218
6.3661
0.332666
5.21086
0.149124
4.15218
2.37486
0.579412
1.7476
0.988795
5.56269
1.27242
7.2325
1.51749
8.9123
1.72296
10.4622
1.93933
12.3505
2.13953
14.3896
2.30696
16.8563
2.42262
19.5872
2.44272
22.7473
2.33571
21.9893
2.14265
17.8056
1.90495
14.494
1.64864
11.8755
1.35935
9.79394
1.07062
8.03958
0.786674
6.65004
0.518591
5.47895
0.257039
4.41374
2.6319
0.509398
1.2382
0.923854
5.14823
1.21329
6.94307
1.46268
8.66291
1.67577
10.2491
1.87543
12.1508
2.01688
14.2482
2.11024
16.7629
2.12448
19.5729
2.03661
22.8352
1.85067
22.1752
1.63147
18.0248
1.4018
14.7237
1.17875
12.0986
0.953938
10.0188
0.746776
8.24674
0.552588
6.84423
0.376343
5.65519
0.188491
4.60159
2.82039
0.100989
1.13721
0.287257
4.96196
0.529178
6.70115
0.79235
8.39974
1.03285
10.0086
1.23443
11.9493
1.40814
14.0745
1.55661
16.6144
1.62782
19.5017
1.59
22.873
1.44592
22.3193
1.25937
18.2114
1.0553
14.9277
0.859189
12.2947
0.674248
10.2037
0.494155
8.42684
0.339907
6.99848
0.20049
5.79461
0.0828974
4.71918
2.90329
-0.129815
1.26703
-0.0328536
4.865
0.138409
6.52988
0.35591
8.18224
0.553823
9.81073
0.757785
11.7453
0.959091
13.8732
1.12104
16.4525
1.21216
19.4106
1.21193
22.8732
1.11001
22.4212
0.960681
18.3607
0.791218
15.0972
0.626194
12.4597
0.479023
10.3509
0.340864
8.56499
0.221046
7.1183
0.116876
5.89878
0.0397053
4.79635
2.94299
-0.2262
1.49323
-0.135893
4.77469
-0.0269865
6.42098
0.104148
8.0511
0.267521
9.64736
0.456088
11.5567
0.644181
13.6851
0.795427
16.3012
0.887393
19.3186
0.906307
22.8543
0.841735
22.4858
0.729688
18.4728
0.595496
15.2314
0.462259
12.5929
0.349411
10.4637
0.246237
8.66817
0.160722
7.20381
0.0890438
5.97045
0.0227268
4.86267
2.96572
-0.254889
1.74811
-0.205352
4.72516
-0.111979
6.3276
0.0189995
7.92012
0.156602
9.50975
0.313212
11.4001
0.442908
13.5554
0.559929
16.1842
0.64674
19.2318
0.680507
22.8205
0.639998
22.5263
0.555212
18.5575
0.452014
15.3346
0.35013
12.6948
0.266976
10.5469
0.186571
8.74857
0.112846
7.27754
0.0465155
6.03679
-0.00877675
4.91796
2.95694
-0.19565
1.94376
-0.200894
4.7304
-0.129435
6.25615
-0.00633437
7.79702
0.106757
9.39666
0.222518
11.2844
0.314041
13.4638
0.399725
16.0985
0.475367
19.1562
0.512008
22.7839
0.4863
22.552
0.423917
18.6199
0.348034
15.4105
0.269825
12.773
0.201757
10.6149
0.133171
8.81716
0.0658333
7.34488
0.0034429
6.09918
-0.0339677
4.95537
2.92298
-0.144589
2.08835
-0.169705
4.75552
-0.128972
6.21541
-0.0372592
7.70531
0.0513227
9.30808
0.143848
11.1918
0.209139
13.3985
0.293819
16.0138
0.358531
19.0915
0.388635
22.7538
0.371403
22.5692
0.326144
18.6652
0.268755
15.4679
0.20386
12.8379
0.143017
10.6758
0.0836942
8.87648
0.0290679
7.3995
-0.0171468
6.14539
-0.040497
4.97872
2.88248
-0.104586
2.19294
-0.132527
4.78346
-0.117401
6.20029
-0.064679
7.65259
-0.00680981
9.25021
0.0680928
11.1169
0.140816
13.3258
0.220478
15.9342
0.276174
19.0358
0.298738
22.7312
0.285569
22.5824
0.248764
18.702
0.200474
15.5162
0.145464
12.8929
0.0926914
10.7286
0.0445787
8.92459
0.00554348
7.43854
-0.0280811
6.17901
-0.0411041
4.99175
2.84138
-0.0791797
2.27212
-0.105436
4.80971
-0.101036
6.19589
-0.0737628
7.62531
-0.0456428
9.22209
0.0142701
11.057
0.0858352
13.2543
0.160982
15.859
0.204625
18.9921
0.225908
22.7099
0.216943
22.5914
0.184568