/*--------------------------------*- C++ -*----------------------------------*\
| =========                 |                                                 |
| \\      /  F ield         | OpenFOAM: The Open Source CFD Toolbox           |
|  \\    /   O peration     | Version:  2412                                  |
|   \\  /    A nd           | Website:  www.openfoam.com                      |
|    \\/     M anipulation  |                                                 |
\*---------------------------------------------------------------------------*/
FoamFile
{
    version     2.0;
    format      ascii;
    arch        "LSB;label=32;scalar=64";
    class       volVectorField;
    location    "3";
    object      U;
}
// * * * * * * * * * * * * * * * * * * * * * * * * * * * * * * * * * * * * * //

dimensions      [0 1 -1 0 0 0 0];

internalField   nonuniform List<vector> 
2200
(
(0.364101 0.00226647 0)
(1.18541 -0.00458195 0)
(2.11929 -0.00055706 0)
(3.16803 0.000401063 0)
(4.32563 0.00167363 0)
(5.57245 0.00253685 0)
(6.86293 0.00305564 0)
(8.11962 0.00294658 0)
(9.20626 0.00324684 0)
(9.90133 0.00274682 0)
(9.90058 0.000683145 0)
(9.20663 -0.000868586 0)
(8.12056 -0.000917628 0)
(6.86331 -0.00115316 0)
(5.57211 -0.00132517 0)
(4.3253 -0.00063583 0)
(3.16788 0.000228288 0)
(2.11923 0.00139331 0)
(1.18492 0.00529001 0)
(0.363234 -0.00225032 0)
(0.372506 0.00910539 0)
(1.17111 0.00451527 0)
(2.11685 0.00565133 0)
(3.16664 0.00547676 0)
(4.32391 0.00843974 0)
(5.57024 0.0108125 0)
(6.86421 0.0119682 0)
(8.11958 0.0116538 0)
(9.20343 0.0096096 0)
(9.89605 0.00629358 0)
(9.89662 0.00225833 0)
(9.20266 -0.00202094 0)
(8.11803 -0.00517022 0)
(6.86242 -0.00697786 0)
(5.56979 -0.00591712 0)
(4.32336 -0.00490175 0)
(3.1657 -0.00331277 0)
(2.11449 -0.00458812 0)
(1.16835 -0.00343345 0)
(0.370535 -0.00908796 0)
(0.412943 0.014191 0)
(1.1745 0.0232698 0)
(2.12539 0.0156046 0)
(3.16404 0.0228488 0)
(4.32373 0.0201935 0)
(5.56522 0.023954 0)
(6.85437 0.0230763 0)
(8.11093 0.0223723 0)
(9.19887 0.0194134 0)
(9.89013 0.0126322 0)
(9.89001 0.00189732 0)
(9.19716 -0.00796196 0)
(8.10994 -0.0116672 0)
(6.85269 -0.0139438 0)
(5.56264 -0.0158421 0)
(4.32051 -0.0144272 0)
(3.16049 -0.0186958 0)
(2.12113 -0.0130305 0)
(1.16949 -0.022269 0)
(0.408449 -0.0138927 0)
(0.504305 0.0149954 0)
(1.19971 0.043149 0)
(2.13758 0.0382082 0)
(3.18057 0.0438196 0)
(4.32989 0.0451298 0)
(5.57618 0.0373931 0)
(6.85521 0.0375888 0)
(8.10319 0.0336936 0)
(9.18344 0.0283666 0)
(9.8739 0.0176399 0)
(9.87514 0.000985007 0)
(9.18174 -0.0106502 0)
(8.10042 -0.0187783 0)
(6.8508 -0.0247956 0)
(5.56899 -0.0277852 0)
(4.3218 -0.0366628 0)
(3.17283 -0.0368735 0)
(2.12721 -0.0337952 0)
(1.19055 -0.0409985 0)
(0.49817 -0.0140049 0)
(0.613457 0.00963389 0)
(1.25789 0.0531752 0)
(2.13046 0.0545066 0)
(3.20627 0.0506489 0)
(4.34173 0.0695775 0)
(5.57772 0.0622761 0)
(6.86064 0.0602949 0)
(8.10341 0.051307 0)
(9.18072 0.0394517 0)
(9.86024 0.0219875 0)
(9.86073 0.000547977 0)
(9.17395 -0.0175038 0)
(8.09488 -0.0318681 0)
(6.8505 -0.0437336 0)
(5.56565 -0.0495445 0)
(4.32903 -0.0582868 0)
(3.18966 -0.0427533 0)
(2.113 -0.0501538 0)
(1.24204 -0.050775 0)
(0.596722 -0.00917196 0)
(0.720938 0.00691361 0)
(1.38025 0.0555417 0)
(2.11989 0.0729029 0)
(3.22174 0.0539978 0)
(4.37456 0.0753326 0)
(5.59681 0.0951184 0)
(6.86913 0.0873065 0)
(8.10059 0.0775455 0)
(9.16924 0.0598401 0)
(9.83793 0.0310998 0)
(9.83779 -0.00273209 0)
(9.1587 -0.0333274 0)
(8.0889 -0.0544978 0)
(6.85288 -0.0676728 0)
(5.57829 -0.0785569 0)
(4.35396 -0.0625997 0)
(3.19694 -0.0468766 0)
(2.09544 -0.0683904 0)
(1.35952 -0.0542328 0)
(0.705904 -0.00638495 0)
(0.827857 0.0124879 0)
(1.50691 0.0579434 0)
(2.12422 0.099937 0)
(3.22631 0.0716421 0)
(4.42516 0.0885682 0)
(5.63104 0.115468 0)
(6.89022 0.11432 0)
(8.11048 0.10324 0)
(9.16663 0.0804357 0)
(9.82076 0.0420568 0)
(9.81944 -0.0086681 0)
(9.15125 -0.0497204 0)
(8.09247 -0.0760952 0)
(6.86726 -0.0916971 0)
(5.60495 -0.0975612 0)
(4.39433 -0.0770777 0)
(3.19385 -0.0633228 0)
(2.09263 -0.0956168 0)
(1.47781 -0.0544795 0)
(0.803669 -0.0115766 0)
(0.965694 0.0222967 0)
(1.65773 0.0698516 0)
(2.16797 0.137276 0)
(3.22698 0.136536 0)
(4.45078 0.12408 0)
(5.64051 0.13343 0)
(6.88821 0.141244 0)
(8.10364 0.135913 0)
(9.15617 0.106862 0)
(9.79566 0.0546765 0)
(9.79408 -0.0140676 0)
(9.13458 -0.0699281 0)
(8.07771 -0.103631 0)
(6.85735 -0.116735 0)
(5.60492 -0.114477 0)
(4.41101 -0.111824 0)
(3.1852 -0.127932 0)
(2.12894 -0.132535 0)
(1.62355 -0.0671184 0)
(0.934901 -0.0214582 0)
(1.15546 0.0318982 0)
(1.85639 0.0841281 0)
(2.29288 0.180259 0)
(3.23768 0.212106 0)
(4.43959 0.196638 0)
(5.64376 0.167421 0)
(6.85518 0.178937 0)
(8.06464 0.162243 0)
(9.11968 0.136998 0)
(9.74553 0.0695242 0)
(9.74307 -0.0215596 0)
(9.09228 -0.0953853 0)
(8.03147 -0.126032 0)
(6.81459 -0.149641 0)
(5.59745 -0.146298 0)
(4.38905 -0.179976 0)
(3.18499 -0.202917 0)
(2.24619 -0.174284 0)
(1.81607 -0.0809352 0)
(1.11885 -0.0315378 0)
(1.39223 0.0387017 0)
(2.10357 0.0949413 0)
(2.47786 0.212115 0)
(3.28633 0.264871 0)
(4.41533 0.277308 0)
(5.64513 0.23666 0)
(6.82911 0.220007 0)
(7.98468 0.191311 0)
(9.04296 0.14679 0)
(9.65278 0.0794179 0)
(9.64991 -0.024012 0)
(9.01011 -0.0967278 0)
(7.94385 -0.149602 0)
(6.77834 -0.186592 0)
(5.58686 -0.212209 0)
(4.35095 -0.260464 0)
(3.22327 -0.25566 0)
(2.4233 -0.205228 0)
(2.05346 -0.0913652 0)
(1.34696 -0.0374966 0)
(1.66292 0.0431985 0)
(2.39375 0.105706 0)
(2.71052 0.239545 0)
(3.39133 0.31483 0)
(4.41649 0.352795 0)
(5.64054 0.333429 0)
(6.80952 0.295829 0)
(7.91905 0.250583 0)
(8.93168 0.177077 0)
(9.49788 0.0973493 0)
(9.49333 -0.0315504 0)
(8.88916 -0.117697 0)
(7.8634 -0.202191 0)
(6.74585 -0.257128 0)
(5.56472 -0.303943 0)
(4.33365 -0.334667 0)
(3.31426 -0.301737 0)
(2.64544 -0.231965 0)
(2.33363 -0.101658 0)
(1.60727 -0.0411337 0)
(1.96019 0.0463207 0)
(2.72391 0.11578 0)
(2.99375 0.267665 0)
(3.55392 0.362353 0)
(4.45804 0.431863 0)
(5.62895 0.428793 0)
(6.78086 0.392668 0)
(7.88946 0.336914 0)
(8.8464 0.254168 0)
(9.36451 0.131321 0)
(9.35855 -0.053584 0)
(8.79757 -0.185392 0)
(7.8203 -0.277573 0)
(6.69968 -0.346853 0)
(5.53275 -0.395991 0)
(4.36179 -0.41067 0)
(3.46652 -0.348634 0)
(2.91735 -0.257053 0)
(2.65524 -0.111311 0)
(1.8942 -0.0431153 0)
(2.28614 0.045923 0)
(3.10142 0.126571 0)
(3.32419 0.28774 0)
(3.77425 0.406806 0)
(4.54503 0.503714 0)
(5.61164 0.512208 0)
(6.73736 0.472357 0)
(7.86331 0.403756 0)
(8.79304 0.324928 0)
(9.28765 0.160975 0)
(9.27798 -0.071813 0)
(8.73522 -0.243053 0)
(7.77456 -0.333507 0)
(6.63014 -0.420963 0)
(5.49767 -0.475993 0)
(4.43083 -0.477377 0)
(3.67203 -0.386298 0)
(3.23574 -0.2757 0)
(3.01516 -0.118061 0)
(2.19651 -0.0420514 0)
(2.61343 0.0434421 0)
(3.50405 0.127119 0)
(3.70147 0.300436 0)
(4.04648 0.427774 0)
(4.67679 0.556055 0)
(5.60607 0.590089 0)
(6.67385 0.550919 0)
(7.78397 0.459814 0)
(8.68661 0.358921 0)
(9.15194 0.184844 0)
(9.13665 -0.0752144 0)
(8.61564 -0.258087 0)
(7.6686 -0.376467 0)
(6.53814 -0.491737 0)
(5.47094 -0.548742 0)
(4.54603 -0.526609 0)
(3.92929 -0.409383 0)
(3.59605 -0.284033 0)
(3.40966 -0.119785 0)
(2.50491 -0.0396868 0)
(2.94797 0.0376943 0)
(3.94343 0.131623 0)
(4.10461 0.302623 0)
(4.3621 0.446904 0)
(4.85894 0.593935 0)
(5.63707 0.665504 0)
(6.60863 0.650573 0)
(7.64734 0.547855 0)
(8.50197 0.38934 0)
(8.9214 0.214395 0)
(8.89968 -0.0816617 0)
(8.41696 -0.268694 0)
(7.50046 -0.447465 0)
(6.44026 -0.573147 0)
(5.47298 -0.610607 0)
(4.70368 -0.551258 0)
(4.22522 -0.414215 0)
(3.98212 -0.28 0)
(3.81344 -0.115965 0)
(2.8006 -0.0319705 0)
(3.24761 0.0340029 0)
(4.36634 0.121341 0)
(4.52881 0.29762 0)
(4.71259 0.448722 0)
(5.09183 0.611422 0)
(5.71752 0.720675 0)
(6.57043 0.739471 0)
(7.49156 0.654558 0)
(8.29761 0.440936 0)
(8.67896 0.255572 0)
(8.6498 -0.0913756 0)
(8.19092 -0.293348 0)
(7.31309 -0.532255 0)
(6.3665 -0.636499 0)
(5.51828 -0.646139 0)
(4.91203 -0.554644 0)
(4.55073 -0.404949 0)
(4.37866 -0.264949 0)
(4.21858 -0.10657 0)
(3.06011 -0.0205493 0)
(3.54885 0.0254995 0)
(4.8205 0.120885 0)
(4.96484 0.28436 0)
(5.09186 0.437443 0)
(5.37069 0.60598 0)
(5.85239 0.739134 0)
(6.56508 0.786436 0)
(7.35383 0.722043 0)
(8.10319 0.494526 0)
(8.4683 0.290454 0)
(8.43067 -0.0915413 0)
(7.96801 -0.319401 0)
(7.14939 -0.57975 0)
(6.32213 -0.656387 0)
(5.61839 -0.637932 0)
(5.15724 -0.521469 0)
(4.89142 -0.373345 0)
(4.77208 -0.234291 0)
(4.61156 -0.0889124 0)
(3.26976 -0.00969095 0)
(3.77879 0.0198328 0)
(5.21718 0.0975376 0)
(5.38184 0.252431 0)
(5.46749 0.403597 0)
(5.67178 0.573529 0)
(6.02599 0.714001 0)
(6.57499 0.795301 0)
(7.23775 0.743355 0)
(7.89983 0.545109 0)
(8.24534 0.319306 0)
(8.19223 -0.0677452 0)
(7.72466 -0.327296 0)
(6.99358 -0.562208 0)
(6.30369 -0.642389 0)
(5.75039 -0.581987 0)
(5.4111 -0.466537 0)
(5.22042 -0.325763 0)
(5.13975 -0.198839 0)
(4.9732 -0.0680872 0)
(3.42274 6.46097e-06 0)
(4.00881 0.0149782 0)
(5.61994 0.0985587 0)
(5.77993 0.229415 0)
(5.83348 0.365944 0)
(5.97522 0.517964 0)
(6.22384 0.661043 0)
(6.61095 0.772786 0)
(7.14571 0.739571 0)
(7.6918 0.585918 0)
(7.99652 0.341661 0)
(7.92536 -0.0276263 0)
(7.47836 -0.306594 0)
(6.8522 -0.498224 0)
(6.30591 -0.572763 0)
(5.90245 -0.486113 0)
(5.65678 -0.384399 0)
(5.51893 -0.258314 0)
(5.45909 -0.14722 0)
(5.27306 -0.0427919 0)
(3.50348 0.00900341 0)
(4.17559 0.011393 0)
(5.94018 0.0734285 0)
(6.11997 0.192369 0)
(6.16031 0.31715 0)
(6.25768 0.466875 0)
(6.43078 0.592866 0)
(6.70245 0.709313 0)
(7.08864 0.720527 0)
(7.50749 0.603627 0)
(7.74928 0.365788 0)
(7.66131 0.0299138 0)
(7.25412 -0.241708 0)
(6.73802 -0.3942 0)
(6.32594 -0.433122 0)
(6.03588 -0.367454 0)
(5.85914 -0.284083 0)
(5.76024 -0.191202 0)
(5.71294 -0.107779 0)
(5.51624 -0.0244444 0)
(3.53148 0.0126303 0)
(4.34871 0.0157618 0)
(6.25695 0.0847974 0)
(6.43457 0.176496 0)
(6.45536 0.288279 0)
(6.51672 0.406971 0)
(6.62728 0.530805 0)
(6.80426 0.643206 0)
(7.06561 0.684091 0)
(7.36097 0.60283 0)
(7.53004 0.396349 0)
(7.4227 0.103668 0)
(7.0693 -0.139315 0)
(6.65919 -0.261969 0)
(6.35102 -0.287159 0)
(6.14015 -0.243854 0)
(6.00992 -0.184069 0)
(5.93979 -0.113431 0)
(5.90298 -0.0563589 0)
(5.6753 -0.00338356 0)
(3.52881 0.0110237 0)
(4.54047 0.0176434 0)
(6.506 0.0695094 0)
(6.70182 0.162704 0)
(6.71919 0.261413 0)
(6.75275 0.37887 0)
(6.81433 0.495547 0)
(6.91714 0.595879 0)
(7.07456 0.656471 0)
(7.25284 0.612339 0)
(7.34983 0.4407 0)
(7.221 0.195662 0)
(6.91987 -0.010857 0)
(6.5985 -0.10932 0)
(6.36521 -0.134749 0)
(6.20724 -0.113326 0)
(6.10948 -0.0793317 0)
(6.05287 -0.0427682 0)
(6.01657 -0.0141911 0)
(5.73173 0.0179162 0)
(3.49917 0.00883693 0)
(4.70697 0.0263657 0)
(6.77222 0.0914538 0)
(6.95812 0.167732 0)
(6.96112 0.26624 0)
(6.96579 0.372414 0)
(6.98949 0.482755 0)
(7.03182 0.590993 0)
(7.09861 0.657917 0)
(7.1746 0.641474 0)
(7.20013 0.505222 0)
(7.05181 0.305898 0)
(6.78938 0.132758 0)
(6.53636 0.0454953 0)
(6.35656 0.00911932 0)
(6.23369 0.00328132 0)
(6.15644 0.0102069 0)
(6.11026 0.0274803 0)
(6.06029 0.0346327 0)
(5.72612 0.0356605 0)
(3.42645 0.0203455 0)
(5.01216 0.0402079 0)
(7.01132 0.10358 0)
(7.205 0.194171 0)
(7.19476 0.298 0)
(7.17691 0.402427 0)
(7.15472 0.521811 0)
(7.14039 0.626275 0)
(7.12867 0.690026 0)
(7.12396 0.698027 0)
(7.0759 0.597685 0)
(6.91207 0.430744 0)
(6.67684 0.283962 0)
(6.47007 0.197212 0)
(6.32228 0.147898 0)
(6.21998 0.120789 0)
(6.15213 0.0989375 0)
(6.10713 0.0801775 0)
(6.04821 0.072449 0)
(5.67965 0.0452504 0)
(3.26472 0.0328321 0)
(5.27673 0.0659618 0)
(7.30842 0.161565 0)
(7.46612 0.256621 0)
(7.43374 0.370156 0)
(7.37463 0.496922 0)
(7.31395 0.609226 0)
(7.24595 0.710606 0)
(7.17055 0.77205 0)
(7.09557 0.789749 0)
(6.97935 0.716842 0)
(6.79581 0.568096 0)
(6.57463 0.439995 0)
(6.3942 0.347753 0)
(6.26167 0.282019 0)
(6.16765 0.232598 0)
(6.10291 0.193139 0)
(6.05695 0.158717 0)
(5.99337 0.118806 0)
(5.59261 0.0888073 0)
(3.12244 0.0409385 0)
(6.0245 0.138097 0)
(7.61646 0.237321 0)
(7.74877 0.368636 0)
(7.6663 0.529806 0)
(7.57077 0.651193 2.72478e-33)
(7.45985 0.76644 -1.89434e-33)
(7.3402 0.858495 0)
(7.20873 0.911112 0)
(7.07692 0.925483 0)
(6.89391 0.863401 0)
(6.68791 0.721531 0)
(6.47383 0.600732 0)
(6.30683 0.498222 0)
(6.18169 0.419849 0)
(6.09015 0.35273 0)
(6.02221 0.291858 0)
(5.97073 0.238456 0)
(5.88825 0.189516 0)
(5.34931 0.122856 0)
(2.74285 0.0588258 0)
(6.50478 0.28937 -3.28215e-19)
(8.02134 0.397042 2.86495e-19)
(8.03093 0.609873 0)
(7.89351 0.782195 2.88105e-20)
(7.74447 0.895321 -2.32078e-20)
(7.58588 0.993207 2.00875e-33)
(7.41752 1.06607 0)
(7.23803 1.10502 1.90869e-19)
(7.05668 1.1075 -6.85849e-19)
(6.80786 1.04638 1.50872e-19)
(6.57868 0.909926 0)
(6.36122 0.790632 -4.97925e-19)
(6.1924 0.679562 -6.23437e-19)
(6.06277 0.588203 1.09618e-18)
(5.96468 0.508891 -8.8172e-19)
(5.88875 0.439599 0)
(5.82114 0.366071 -3.40957e-19)
(5.6892 0.273736 0)
(5.03246 0.223035 -1.75067e-18)
(2.43952 0.104681 2.12932e-18)
(6.82935 0.623418 -8.81755e-20)
(8.2914 0.798984 -2.07243e-18)
(8.26426 0.992381 5.39888e-19)
(8.0758 1.10222 6.7822e-19)
(7.88615 1.19057 -4.64102e-20)
(7.68779 1.26488 1.1316e-19)
(7.47414 1.32553 0)
(7.25577 1.34878 0)
(7.02526 1.33885 1.09446e-18)
(6.71863 1.27276 0)
(6.46074 1.14178 1.73527e-18)
(6.22631 1.02132 5.42218e-19)
(6.04387 0.908124 1.61737e-20)
(5.90033 0.811006 -1.24989e-18)
(5.78491 0.722992 0)
(5.69236 0.651931 0)
(5.60884 0.606113 -5.89051e-18)
(5.46634 0.529566 1.49572e-17)
(4.8488 0.425927 -8.20696e-18)
(2.32024 0.213384 -1.03851e-17)
(6.98898 0.980745 2.73429e-18)
(8.49778 1.3385 -9.62204e-19)
(8.4385 1.41781 -2.41966e-19)
(8.21887 1.48085 -1.22484e-18)
(7.99982 1.5222 5.447e-19)
(7.75834 1.57776 -1.4554e-19)
(7.50793 1.61542 2.09132e-19)
(7.25313 1.62016 0)
(6.97782 1.59221 -2.29586e-18)
(6.63049 1.51304 2.53855e-18)
(6.34531 1.38267 -4.74849e-18)
(6.09239 1.25646 2.31418e-18)
(5.89524 1.14181 -1.71109e-18)
(5.73828 1.04722 3.74501e-18)
(5.60878 0.964289 0)
(5.49841 0.891187 -1.47838e-18)
(5.40221 0.83087 0)
(5.25451 0.827965 8.59133e-18)
(4.72011 0.630024 -1.96722e-17)
(2.31748 0.368208 1.28951e-17)
(7.03941 1.28794 -1.24455e-17)
(8.59275 1.86304 6.44838e-18)
(8.55861 1.90522 9.312e-19)
(8.33458 1.87693 0)
(8.07697 1.89382 6.07048e-19)
(7.80246 1.91913 -6.3341e-19)
(7.52051 1.92591 -2.52575e-19)
(7.23032 1.90982 0)
(6.91972 1.85883 1.62748e-18)
(6.54415 1.76266 -1.74548e-18)
(6.23169 1.62694 4.17663e-18)
(5.95914 1.4932 0)
(5.7452 1.3772 -3.60063e-18)
(5.57421 1.28403 1.9833e-18)
(5.43458 1.20971 5.40832e-18)
(5.32001 1.14005 -4.75418e-18)
(5.22327 1.0656 7.9321e-18)
(5.08774 1.05863 -1.77151e-17)
(4.60587 0.866709 1.12215e-17)
(2.39842 0.488154 -1.43265e-17)
(7.05472 1.505 8.42067e-18)
(8.62576 2.39084 -7.13601e-18)
(8.61952 2.31784 2.8538e-18)
(8.37719 2.29474 -3.90315e-18)
(8.1066 2.28968 2.537e-18)
(7.8161 2.2755 -3.69473e-19)
(7.50887 2.25095 1.2219e-19)
(7.19056 2.2099 -1.16259e-18)
(6.85398 2.13198 -1.66421e-18)
(6.45594 2.0161 -3.78093e-18)
(6.11794 1.87098 -9.01818e-18)
(5.82984 1.73071 -3.02559e-18)
(5.6071 1.6125 1.17123e-19)
(5.43359 1.51569 -7.13557e-18)
(5.30036 1.44053 -2.58743e-19)
(5.19121 1.37702 6.96797e-18)
(5.09196 1.28991 -2.16751e-18)
(4.95111 1.2636 -1.28024e-18)
(4.52123 1.07894 0)
(2.47499 0.623011 3.05133e-17)
(6.95452 1.82665 0)
(8.61565 2.80577 1.98e-18)
(8.6447 2.69171 0)
(8.37889 2.69304 -4.79875e-19)
(8.10289 2.66645 -3.06397e-18)
(7.79738 2.63134 5.62912e-19)
(7.47366 2.57756 1.58711e-19)
(7.13626 2.51029 2.07283e-18)
(6.77994 2.40555 -1.00421e-18)
(6.36439 2.27058 1.66791e-18)
(6.00652 2.11312 4.86777e-18)
(5.70854 1.96218 6.69997e-18)
(5.48133 1.83671 -4.17565e-18)
(5.30388 1.72875 7.72322e-18)
(5.16248 1.64066 -6.19756e-18)
(5.05422 1.57969 0)
(4.97075 1.51175 -1.66095e-17)
(4.86099 1.47289 2.23266e-17)
(4.47348 1.30965 1.7068e-18)
(2.53015 0.749761 -3.21817e-17)
(6.93183 2.14012 -7.96341e-19)
(8.58636 3.23356 -5.74161e-18)
(8.61665 3.08977 -1.54747e-17)
(8.34973 3.07691 8.4192e-18)
(8.06005 3.03653 -1.69758e-18)
(7.74946 2.97411 8.87061e-19)
(7.41699 2.8948 -7.92745e-20)
(7.06802 2.80337 -2.52636e-19)
(6.69664 2.6752 -3.60415e-18)
(6.26985 2.52182 2.0162e-20)
(5.90026 2.34732 -5.2962e-18)
(5.59964 2.18215 -7.10225e-18)
(5.37646 2.04874 4.68967e-18)
(5.20875 1.93822 -2.77288e-18)
(5.08343 1.84783 6.72213e-18)
(4.97579 1.78815 0)
(4.8749 1.72487 -1.02582e-17)
(4.73069 1.64857 1.51755e-17)
(4.37376 1.51096 2.95917e-17)
(2.52378 0.87388 -3.45187e-17)
(6.79032 2.35554 -2.7091e-17)
(8.50292 3.56696 1.32533e-17)
(8.56942 3.39803 9.78136e-18)
(8.26583 3.44152 -8.93185e-18)
(7.98615 3.38292 5.17111e-19)
(7.67837 3.30043 2.22568e-18)
(7.34511 3.19873 -2.46797e-19)
(6.98895 3.0854 -8.41398e-19)
(6.60685 2.93647 -2.25129e-18)
(6.17567 2.76451 3.80558e-18)
(5.79852 2.57163 5.03849e-18)
(5.49157 2.39269 1.11441e-17)
(5.25923 2.2499 0)
(5.07473 2.13072 2.06891e-19)
(4.9218 2.02455 -1.86229e-17)
(4.81273 1.93846 4.26023e-18)
(4.73536 1.89741 2.19367e-17)
(4.6556 1.83769 -6.34931e-18)
(4.32635 1.68827 1.42124e-17)
(2.47333 0.984666 -9.92346e-19)
(6.69402 2.6479 9.7093e-19)
(8.41244 3.91145 1.21122e-17)
(8.48381 3.71053 7.07746e-18)
(8.16036 3.76197 -1.50524e-17)
(7.88649 3.68568 9.24027e-18)
(7.58689 3.59366 -2.64698e-18)
(7.25815 3.48013 1.77431e-19)
(6.89946 3.35189 1.96782e-18)
(6.51258 3.18618 4.00513e-18)
(6.08013 2.99721 -4.85368e-18)
(5.69487 2.78735 0)
(5.38186 2.59443 -4.37139e-18)
(5.15215 2.43936 5.01485e-18)
(4.98532 2.31488 6.75997e-18)
(4.86429 2.21476 -3.86705e-18)
(4.75162 2.14721 -9.81939e-18)
(4.6487 2.09965 -2.98763e-18)
(4.51444 1.995 -3.95695e-20)
(4.20133 1.82546 0)
(2.4209 1.06181 0)
(6.56223 2.83966 -1.29842e-17)
(8.32109 4.23168 0)
(8.38729 4.02473 7.83856e-18)
(8.04576 4.07514 -3.6597e-18)
(7.78653 3.96513 -9.07259e-18)
(7.49374 3.85969 2.56473e-18)
(7.16457 3.7392 9.60106e-20)
(6.80396 3.60022 -1.06869e-18)
(6.41377 3.42143 2.72605e-18)
(5.98027 3.21772 -1.95676e-18)
(5.58562 2.99213 2.83472e-18)
(5.26264 2.78452 1.36071e-17)
(5.01882 2.61626 5.22568e-19)
(4.82424 2.48187 -6.87014e-18)
(4.66709 2.36344 1.33078e-17)
(4.57126 2.23869 1.85636e-19)
(4.49492 2.19252 3.19836e-18)
(4.42513 2.11138 -1.56916e-17)
(4.14267 1.98765 1.61485e-17)
(2.367 1.12834 -1.71259e-17)
(6.43417 3.03568 4.21235e-21)
(8.19251 4.53225 0)
(8.27292 4.31045 0)
(7.92472 4.369 3.09928e-18)
(7.68909 4.22301 3.53153e-18)
(7.39637 4.10773 -1.82684e-18)
(7.06541 3.97903 7.71772e-19)
(6.70237 3.8301 0)
(6.31032 3.64098 -4.31991e-18)
(5.87624 3.42537 7.12523e-18)
(5.47423 3.18686 8.55019e-18)
(5.14616 2.96778 -5.11962e-18)
(4.90798 2.78892 -6.4127e-18)
(4.74016 2.64362 1.51397e-17)
(4.62231 2.52737 -4.69952e-18)
(4.51157 2.45249 -5.72029e-18)
(4.4169 2.4065 -3.50062e-18)
(4.31102 2.28201 -1.69639e-17)
(4.00727 2.09343 2.25622e-18)
(2.30127 1.18843 1.83403e-17)
(6.30626 3.23688 -5.13867e-18)
(8.07394 4.78555 -7.04563e-18)
(8.16335 4.56716 9.75851e-19)
(7.82064 4.6309 8.89772e-20)
(7.59768 4.46213 9.5216e-19)
(7.30313 4.34109 -4.92422e-18)
(6.96659 4.2049 0)
(6.6001 4.045 8.95718e-19)
(6.20596 3.84585 -7.04862e-19)
(5.77218 3.61998 1.15373e-17)
(5.36351 3.37139 -2.1336e-18)
(5.02791 3.14065 2.35479e-18)
(4.77908 2.94694 0)
(4.58419 2.79109 -8.26047e-18)
(4.42595 2.65681 1.02715e-17)
(4.32913 2.50352 0)
(4.24657 2.45341 -7.67868e-18)
(4.17693 2.32525 2.24388e-17)
(3.91692 2.21972 2.74453e-18)
(2.22787 1.23088 -2.26368e-17)
(6.19168 3.40017 -1.07605e-17)
(7.97802 5.08687 1.31097e-17)
(8.0609 4.83668 0)
(7.72289 4.88468 7.56118e-18)
(7.5089 4.6868 0)
(7.20713 4.56081 4.48167e-18)
(6.86539 4.41644 0)
(6.49776 4.24551 0)
(6.10416 4.03725 -1.51778e-18)
(5.67152 3.80323 -1.11716e-17)
(5.25748 3.5473 -1.59233e-17)
(4.91771 3.30823 2.93941e-18)
(4.66857 3.10476 1.08924e-17)
(4.48865 2.93827 9.23762e-18)
(4.36814 2.80295 -3.28544e-17)
(4.26525 2.70091 -1.35303e-17)
(4.1709 2.64704 7.90231e-18)
(4.0877 2.49627 0)
(3.77977 2.29331 2.3786e-17)
(2.14219 1.2656 -2.42941e-17)
(6.07704 3.55275 1.17928e-17)
(7.84834 5.28171 -1.42975e-17)
(7.96971 5.06263 0)
(7.62949 5.12302 -3.83628e-19)
(7.42091 4.90592 -3.03053e-18)
(7.1143 4.77109 0)
(6.76814 4.61692 -1.04472e-19)
(6.40159 4.43444 9.93192e-19)
(6.0085 4.21754 -2.30125e-18)
(5.57598 3.9759 1.23706e-18)
(5.15648 3.71444 0)
(4.80906 3.4685 1.16971e-17)
(4.54793 3.25534 2.47384e-20)
(4.34227 3.07343 4.98402e-18)
(4.17519 2.91857 6.07126e-18)
(4.07303 2.74317 0)
(3.99199 2.67135 -1.35064e-17)
(3.93371 2.51792 2.65241e-17)
(3.66306 2.39148 -2.8933e-17)
(2.04177 1.27913 5.25189e-17)
(5.99187 3.71312 0)
(7.76796 5.52064 0)
(7.87651 5.27151 -7.25681e-18)
(7.53009 5.33944 0)
(7.33154 5.1064 0)
(7.01836 4.96869 6.13788e-18)
(6.672 4.80508 -1.64574e-19)
(6.30896 4.61149 5.80988e-19)
(5.91757 4.38686 -3.54461e-19)
(5.4849 4.13878 0)
(5.05935 3.87369 -2.51854e-18)
(4.70391 3.62294 -9.67214e-18)
(4.43419 3.4013 -1.20647e-17)
(4.23684 3.2161 -4.9797e-18)
(4.103 3.05962 6.60672e-18)
(3.99931 2.92097 -1.56334e-17)
(3.89523 2.85272 2.90166e-17)
(3.82561 2.65656 5.41084e-19)
(3.51461 2.41933 -2.76471e-17)
(1.9284 1.28404 -3.58892e-18)
(5.89374 3.84905 0)
(7.66439 5.71721 -1.04386e-17)
(7.77844 5.48035 8.31229e-18)
(7.43531 5.5398 0)
(7.24052 5.29458 0)
(6.92469 5.15352 -1.34694e-17)
(6.58098 4.98129 0)
(6.22229 4.77764 0)
(5.83184 4.54607 -4.85266e-18)
(5.39749 4.2919 2.14882e-18)
(4.96715 4.02408 -2.07772e-17)
(4.60638 3.7719 0)
(4.32722 3.54818 -1.28473e-17)
(4.10012 3.34748 4.47152e-19)
(3.91146 3.16852 -2.06585e-17)
(3.79017 2.97446 8.47362e-18)
(3.7014 2.86169 2.15099e-19)
(3.65622 2.66883 -3.14366e-17)
(3.36408 2.49791 1.50296e-17)
(1.79406 1.25844 3.83114e-18)
(5.80218 3.96949 0)
(7.55661 5.90745 -1.22249e-17)
(7.68854 5.65887 8.55277e-18)
(7.33649 5.72726 1.66096e-17)
(7.14735 5.46596 3.05527e-18)
(6.82968 5.32342 -1.72134e-18)
(6.49081 5.14389 1.13521e-18)
(6.13693 4.93163 7.73581e-19)
(5.74808 4.69414 5.19928e-18)
(5.31306 4.43497 1.46851e-17)
(4.87923 4.16611 1.72715e-17)
(4.5096 3.91394 3.20281e-18)
(4.21276 3.6866 1.86923e-17)
(3.98677 3.48606 1.19092e-17)
(3.83178 3.30917 1.49005e-17)
(3.71482 3.13931 -9.1902e-18)
(3.59479 3.03883 -1.13678e-17)
(3.52973 2.78373 1.35317e-17)
(3.18873 2.47685 -8.3371e-18)
(1.65002 1.22433 1.2776e-17)
(5.70993 4.08661 1.79077e-17)
(7.47191 6.0668 1.93421e-17)
(7.58432 5.8304 4.4108e-18)
(7.23294 5.8953 2.28237e-19)
(7.05407 5.62402 -1.10109e-17)
(6.7373 5.47972 3.97665e-18)
(6.40433 5.29367 -1.27655e-18)
(6.05543 5.07417 -3.60812e-19)
(5.66791 4.83174 -5.94402e-18)
(5.23229 4.56858 -1.62056e-17)
(4.79676 4.29963 1.10921e-18)
(4.42246 4.05035 0)
(4.12075 3.82781 0)
(3.86954 3.62269 -6.1002e-18)
(3.64799 3.43 -2.37503e-17)
(3.48691 3.21828 1.97081e-17)
(3.36475 3.05724 1.21905e-17)
(3.30994 2.80935 0)
(2.99971 2.5375 2.67837e-17)
(1.48771 1.1594 -1.45806e-17)
(5.61983 4.19474 -9.1486e-18)
(7.34923 6.23389 7.68737e-18)
(7.47874 5.97789 -1.01676e-17)
(7.13394 6.04422 -1.0414e-17)
(6.96295 5.76578 -4.29038e-18)
(6.64617 5.62194 1.17857e-18)
(6.31967 5.43067 0)
(5.9751 5.20522 -8.99806e-19)
(5.58958 4.9587 5.8704e-19)
(5.15552 4.69276 0)
(4.71988 4.42498 0)
(4.3387 4.18013 2.14651e-18)
(4.01854 3.96172 3.12731e-18)
(3.75537 3.76145 -6.45554e-18)
(3.55848 3.57485 1.71381e-17)
(3.41393 3.38256 -2.11285e-17)
(3.26056 3.23838 -2.63138e-17)
(3.15975 2.91359 2.40617e-17)
(2.74616 2.47626 -9.83511e-18)
(1.26153 1.10205 5.55029e-18)
(5.52564 4.27558 1.05768e-17)
(7.26107 6.37422 0)
(7.3926 6.13288 0)
(7.04582 6.19219 -3.32586e-18)
(6.87891 5.89941 2.67892e-18)
(6.56133 5.75441 -2.97451e-19)
(6.24012 5.55727 -3.95147e-18)
(5.89937 5.3265 -7.3002e-20)
(5.51606 5.0765 1.02241e-17)
(5.08388 4.80873 -1.28659e-18)
(4.64874 4.54244 2.8397e-18)
(4.26341 4.30321 -1.81141e-17)
(3.93843 4.09353 -1.8855e-17)
(3.65755 3.89726 -3.37621e-18)
(3.39989 3.70807 0)
(3.17166 3.50446 -3.54679e-19)
(2.98348 3.30718 1.35307e-17)
(2.86527 2.97668 -2.62905e-17)
(2.47747 2.51934 2.0083e-17)
(0.931234 0.865744 1.77352e-17)
(5.45827 4.38171 -2.27256e-17)
(7.18578 6.52733 -8.94063e-18)
(7.31985 6.28294 4.95647e-20)
(6.96596 6.33792 4.3976e-18)
(6.79661 6.02849 0)
(6.4789 5.87971 1.05861e-17)
(6.16249 5.6769 4.64005e-18)
(5.82446 5.44141 -6.35172e-19)
(5.44352 5.18863 -5.11884e-18)
(5.01417 4.91988 -1.2437e-18)
(4.57998 4.65623 1.15075e-18)
(4.18903 4.42447 1.58396e-17)
(3.84855 4.22571 1.83091e-17)
(3.55024 4.04343 3.21374e-18)
(3.30078 3.87007 1.7042e-17)
(3.10904 3.67888 0)
(2.89515 3.51088 0)
(2.67413 3.11623 1.70009e-17)
(1.98778 2.34965 2.0052e-19)
(0.620752 1.24152 -1.74194e-17)
(5.36739 4.45383 1.2222e-17)
(7.08737 6.63397 2.65876e-17)
(7.20941 6.39073 -3.83236e-17)
(6.86552 6.45908 2.17605e-17)
(6.71647 6.1515 -2.28938e-18)
(6.39944 6.00009 1.36313e-17)
(6.08766 5.79226 0)
(5.75215 5.55298 6.35123e-19)
(5.37371 5.29834 0)
(4.94648 5.02984 1.57385e-17)
(4.51357 4.77015 -1.57849e-18)
(4.12047 4.54821 1.76487e-18)
(3.77651 4.364 2.05746e-17)
(3.46525 4.19481 -7.07198e-18)
(3.16874 4.03069 -9.01146e-18)
(2.87517 3.86402 0)
(2.56433 3.68075 0)
(2.23273 3.26965 0)
(1.29646 2.37876 -8.76084e-18)
(0.809601 2.06298 -5.58077e-18)
(5.2917 4.54129 0)
(6.95971 6.73692 0)
(7.10092 6.49045 1.36948e-17)
(6.77729 6.55811 -1.80445e-17)
(6.64299 6.26071 1.15752e-17)
(6.32141 6.11367 -1.23719e-17)
(6.01478 5.90232 -4.18929e-19)
(5.68113 5.66034 3.244e-19)
(5.30507 5.40453 8.99852e-19)
(4.88076 5.13678 -1.80148e-17)
(4.45061 4.88207 2.69475e-18)
(4.05513 4.6717 1.56084e-17)
(3.69875 4.50407 -2.04182e-17)
(3.36863 4.35805 -2.30794e-17)
(3.06795 4.22777 8.02559e-18)
(2.80425 4.0831 0)
(2.51985 3.88939 1.2722e-17)
(2.04742 3.2982 1.55294e-17)
(1.31246 2.64631 -1.60823e-17)
(0.890516 2.90042 2.20382e-17)
(5.24236 4.62371 0)
(6.925 6.8942 2.16062e-17)
(7.09394 6.65895 -3.49802e-18)
(6.74158 6.70435 2.2704e-17)
(6.57492 6.37222 -1.21641e-17)
(6.24954 6.22488 0)
(5.94486 6.00785 0)
(5.61319 5.76397 0)
(5.2398 5.50753 3.31221e-18)
(4.81824 5.24142 6.63919e-19)
(4.3914 4.99241 0)
(3.9968 4.79488 -1.54179e-17)
(3.64064 4.64736 0)
(3.307 4.52345 1.64605e-17)
(2.98359 4.40621 -1.13288e-17)
(2.65731 4.28717 -9.23135e-18)
(2.2754 4.05246 -2.42886e-17)
(1.70981 3.44529 -1.30446e-17)
(1.22408 3.18605 -2.33773e-17)
(0.998441 3.44605 1.72607e-17)
(5.19846 4.6867 -7.57652e-18)
(6.9046 7.01342 1.39634e-20)
(7.01901 6.76998 -3.59959e-18)
(6.65591 6.83394 -1.759e-17)
(6.49758 6.48637 0)
(6.17818 6.33195 0)
(5.87606 6.10956 0)
(5.54694 5.86421 6.85227e-20)
(5.17578 5.6077 -4.319e-18)
(4.7579 5.34353 0)
(4.336 5.10044 0)
(3.94433 4.91672 0)
(3.58581 4.7908 0)
(3.24295 4.69636 1.2132e-17)
(2.92141 4.62211 3.10635e-17)
(2.6258 4.5069 9.87802e-18)
(2.2752 4.19572 2.30099e-17)
(1.77823 3.6817 -1.81053e-17)
(1.33832 3.78195 7.87273e-18)
(1.1723 3.91511 0)
(5.1004 4.73784 7.21011e-18)
(6.75364 7.0418 -4.05458e-17)
(6.87195 6.82682 -9.28478e-18)
(6.53648 6.88397 -2.70553e-18)
(6.42793 6.58029 2.73671e-18)
(6.10383 6.43096 -1.79113e-17)
(5.80886 6.20887 1.12436e-18)
(5.48236 5.9626 3.05972e-18)
(5.11428 5.70646 0)
(4.70052 5.44482 -1.13311e-18)
(4.2839 5.20722 1.03153e-18)
(3.89856 5.03724 0)
(3.54739 4.93361 0)
(3.21657 4.8665 -1.51887e-17)
(2.89959 4.80318 2.65188e-18)
(2.57253 4.69135 -9.23194e-18)
(2.10452 4.38788 2.03126e-17)
(1.52848 4.02037 1.76272e-17)
(1.14265 4.19606 -3.25044e-17)
(1.04557 4.24665 1.71073e-17)
(5.03315 4.82594 1.3474e-17)
(6.66203 7.16986 3.77247e-17)
(6.82574 6.94184 1.1233e-17)
(6.49491 6.99892 0)
(6.3645 6.67505 0)
(6.02824 6.53209 1.34919e-17)
(5.74045 6.30836 -6.64792e-18)
(5.4157 6.06183 -2.93356e-18)
(5.05113 5.80605 8.52658e-23)
(4.6428 5.54637 1.27803e-17)
(4.23396 5.31329 -1.85638e-17)
(3.85839 5.15589 0)
(3.51809 5.07438 0)
(3.19522 5.04032 -1.07251e-17)
(2.88714 5.01501 -1.41402e-17)
(2.56218 4.90285 0)
(2.12457 4.5166 -2.91333e-17)
(1.73398 4.33161 -5.34994e-18)
(1.44049 4.70916 3.35823e-17)
(1.17553 4.71508 -1.72133e-17)
(4.99684 4.8943 -2.55158e-17)
(6.64191 7.31362 -1.84588e-17)
(6.7966 7.10132 0)
(6.43826 7.158 0)
(6.27949 6.79442 0)
(5.95231 6.64378 0)
(5.66697 6.4106 6.97885e-18)
(5.3458 6.1626 -4.28679e-18)
(4.9862 5.9063 0)
(4.5848 5.64838 -1.15235e-17)
(4.18504 5.4187 3.35102e-17)
(3.82309 5.27189 1.43179e-18)
(3.50092 5.20923 2.16438e-18)
(3.20069 5.19936 1.81351e-17)
(2.90627 5.18285 -1.20965e-17)
(2.57377 5.03736 0)
(2.08457 4.77595 9.47895e-18)
(1.64057 4.86254 7.30837e-19)
(1.13984 5.1265 -5.0556e-18)
(0.75139 5.18522 1.03326e-17)
(4.90975 4.95732 1.20771e-17)
(6.53814 7.4003 -1.76886e-17)
(6.65664 7.1688 0)
(6.30377 7.23702 -3.94544e-18)
(6.18493 6.89962 1.4598e-17)
(5.86383 6.7508 0)
(5.58625 6.51359 0)
(5.27106 6.26384 7.87169e-18)
(4.91696 6.00662 -5.44359e-19)
(4.52408 5.74958 1.11841e-17)
(4.13671 5.52221 -1.59357e-17)
(3.792 5.38334 1.03182e-17)
(3.49106 5.33648 0)
(3.20924 5.35275 -9.89346e-18)
(2.93171 5.36307 6.18946e-18)
(2.59522 5.24558 6.7982e-18)
(2.16129 4.99553 0)
(1.77077 5.16908 4.70984e-18)
(1.30794 5.7983 7.85206e-18)
(1.20311 6.00385 2.365e-18)
(4.79315 5.0172 -2.24926e-17)
(6.38138 7.48291 2.55685e-17)
(6.53048 7.26453 1.7872e-17)
(6.20395 7.32901 -4.57412e-18)
(6.0978 6.99841 -2.19952e-17)
(5.76875 6.85493 0)
(5.50161 6.61627 6.1271e-18)
(5.1915 6.36461 -3.38611e-18)
(4.84456 6.10589 -1.39924e-19)
(4.46221 5.84931 -9.72591e-18)
(4.08888 5.62357 -7.85488e-19)
(3.7635 5.48944 -1.15725e-17)
(3.48829 5.45222 1.41406e-17)
(3.2383 5.48 4.49156e-18)
(2.97857 5.50092 -1.04768e-17)
(2.66365 5.34794 1.14983e-17)
(2.30914 5.18561 0)
(1.95782 5.79838 0)
(1.73107 6.49651 1.16233e-18)
(0.451547 6.55963 -4.86422e-18)
(4.72537 5.11423 1.0841e-17)
(6.29996 7.63656 2.38394e-17)
(6.45818 7.42311 -1.78572e-17)
(6.11865 7.48037 1.61848e-17)
(5.99794 7.117 2.13569e-17)
(5.66953 6.96729 0)
(5.4116 6.71958 -6.50135e-18)
(5.10728 6.46457 -4.74705e-18)
(4.76826 6.2032 0)
(4.39776 5.94566 0)
(4.04152 5.72048 0)
(3.73831 5.58813 0)
(3.48911 5.5549 -1.61084e-17)
(3.26588 5.59298 -6.10168e-18)
(3.04608 5.61837 0)
(2.74377 5.50689 -5.7201e-18)
(2.5669 5.53901 0)
(2.59501 5.88984 -2.42102e-18)
(2.64948 5.93258 4.43728e-19)
(1.43081 5.97338 1.45445e-18)
(4.6224 5.17694 -2.07309e-17)
(6.18691 7.74889 -1.51651e-17)
(6.32708 7.54265 -1.10966e-17)
(5.98836 7.60002 -1.5093e-17)
(5.88263 7.23543 -1.00224e-17)
(5.56167 7.08191 0)
(5.31359 6.82452 -1.19528e-18)
(5.01703 6.56499 5.95592e-19)