/*--------------------------------*- C++ -*----------------------------------*\
| =========                 |                                                 |
| \\      /  F ield         | OpenFOAM: The Open Source CFD Toolbox           |
|  \\    /   O peration     | Version:  2412                                  |
|   \\  /    A nd           | Website:  www.openfoam.com                      |
|    \\/     M anipulation  |                                                 |
\*---------------------------------------------------------------------------*/
FoamFile
{
    version     2.0;
    format      ascii;
    arch        "LSB;label=32;scalar=64";
    class       surfaceScalarField;
    location    "0.74";
    object      phi;
}
// * * * * * * * * * * * * * * * * * * * * * * * * * * * * * * * * * * * * * //

dimensions      [0 3 -1 0 0 0 0];

oriented        oriented;

internalField   nonuniform List<scalar> 
799
(
2.36406e-05
4.72813e-05
7.09219e-05
9.45623e-05
0.000118203
0.000141843
0.000165483
0.000189122
0.000212762
0.0002364
0.000260039
0.000283677
0.000307315
0.000330952
0.000354588
0.000378224
0.000401859
0.000425494
0.000449127
0.00047276
0.000496393
0.000520024
0.000543654
0.000567284
0.000590912
0.00061454
0.000638166
0.000661792
0.000685416
0.000709039
0.000732661
0.000756281
0.000779901
0.000803519
0.000827135
0.00085075
0.000874364
0.000897976
0.000921586
0.000945195
0.000968803
0.000992408
0.00101601
0.00103961
0.00106321
0.00108681
0.00111041
0.001134
0.0011576
0.00118119
0.00120478
0.00122836
0.00125195
0.00127553
0.00129911
0.00132269
0.00134626
0.00136984
0.00139341
0.00141697
0.00144054
0.0014641
0.00148766
0.00151122
0.00153478
0.00155833
0.00158188
0.00160543
0.00162897
0.00165251
0.00167605
0.00169959
0.00172312
0.00174665
0.00177018
0.0017937
0.00181722
0.00184074
0.00186425
0.00188776
0.00191127
0.00193477
0.00195827
0.00198177
0.00200526
0.00202875
0.00205224
0.00207572
0.0020992
0.00212267
0.00214614
0.00216961
0.00219307
0.00221653
0.00223999
0.00226344
0.00228688
0.00231033
0.00233377
0.0023572
0.00238063
0.00240406
0.00242748
0.00245089
0.00247431
0.00249771
0.00252112
0.00254452
0.00256791
0.0025913
0.00261468
0.00263806
0.00266144
0.00268481
0.00270817
0.00273153
0.00275489
0.00277824
0.00280158
0.00282492
0.00284825
0.00287158
0.00289491
0.00291822
0.00294154
0.00296484
0.00298814
0.00301144
0.00303473
0.00305801
0.00308129
0.00310457
0.00312783
0.00315109
0.00317435
0.0031976
0.00322084
0.00324407
0.0032673
0.00329053
0.00331375
0.00333696
0.00336016
0.00338336
0.00340655
0.00342973
0.00345291
0.00347608
0.00349925
0.00352241
0.00354556
0.0035687
0.00359184
0.00361497
0.00363809
0.0036612
0.00368431
0.00370741
0.00373051
0.00375359
0.00377667
0.00379974
0.0038228
0.00384586
0.00386891
0.00389195
0.00391498
0.003938
0.00396102
0.00398403
0.00400703
0.00403002
0.004053
0.00407597
0.00409894
0.0041219
0.00414485
0.00416779
0.00419072
0.00421364
0.00423656
0.00425946
0.00428236
0.00430525
0.00432813
0.00435099
0.00437385
0.00439671
0.00441955
0.00444238
0.0044652
0.00448801
0.00451082
0.00453361
0.00455639
0.00457917
0.00460193
0.00462468
0.00464743
0.00467016
0.00469288
0.0047156
0.0047383
0.00476099
0.00478367
0.00480634
0.004829
0.00485165
0.00487429
0.00489691
0.00491953
0.00494213
0.00496473
0.00498731
0.00500988
0.00503244
0.00505498
0.00507752
0.00510004
0.00512255
0.00514505
0.00516754
0.00519002
0.00521248
0.00523493
0.00525737
0.0052798
0.00530221
0.00532461
0.005347
0.00536938
0.00539174
0.00541409
0.00543642
0.00545875
0.00548105
0.00550335
0.00552563
0.0055479
0.00557016
0.0055924
0.00561462
0.00563684
0.00565904
0.00568122
0.00570339
0.00572554
0.00574768
0.00576981
0.00579192
0.00581402
0.0058361
0.00585816
0.00588021
0.00590225
0.00592427
0.00594627
0.00596826
0.00599023
0.00601219
0.00603413
0.00605605
0.00607796
0.00609985
0.00612172
0.00614358
0.00616542
0.00618724
0.00620905
0.00623083
0.0062526
0.00627436
0.00629609
0.00631781
0.00633951
0.00636119
0.00638285
0.0064045
0.00642612
0.00644773
0.00646932
0.00649089
0.00651244
0.00653397
0.00655548
0.00657697
0.00659844
0.0066199
0.00664133
0.00666274
0.00668413
0.0067055
0.00672685
0.00674818
0.00676948
0.00679077
0.00681203
0.00683327
0.00685449
0.00687569
0.00689687
0.00691802
0.00693915
0.00696026
0.00698135
0.00700241
0.00702345
0.00704446
0.00706546
0.00708642
0.00710737
0.00712829
0.00714918
0.00717005
0.00719089
0.00721171
0.00723251
0.00725327
0.00727402
0.00729473
0.00731542
0.00733608
0.00735672
0.00737733
0.00739791
0.00741846
0.00743899
0.00745949
0.00747996
0.0075004
0.00752081
0.00754119
0.00756154
0.00758187
0.00760216
0.00762243
0.00764266
0.00766286
0.00768303
0.00770317
0.00772328
0.00774335
0.0077634
0.00778341
0.00780339
0.00782333
0.00784324
0.00786312
0.00788296
0.00790277
0.00792254
0.00794228
0.00796198
0.00798165
0.00800128
0.00802087
0.00804043
0.00805994
0.00807942
0.00809887
0.00811827
0.00813763
0.00815696
0.00817624
0.00819549
0.00821469
0.00823385
0.00825297
0.00827205
0.00829108
0.00831008
0.00832902
0.00834793
0.00836679
0.0083856
0.00840437
0.0084231
0.00844177
0.0084604
0.00847898
0.00849751
0.008516
0.00853443
0.00855282
0.00857115
0.00858943
0.00860766
0.00862584
0.00864396
0.00866203
0.00868005
0.00869801
0.00871592
0.00873376
0.00875156
0.00876926
0.00878762
0.00878645
0.00683302
6.45801e-06
-0.00682605
-0.00878595
-0.00878762
-0.00876924
-0.00875153
-0.00873374
-0.00871589
-0.00869799
-0.00868003
-0.00866201
-0.00864394
-0.00862582
-0.00860764
-0.00858941
-0.00857113
-0.00855279
-0.00853441
-0.00851597
-0.00849749
-0.00847896
-0.00846038
-0.00844175
-0.00842307
-0.00840435
-0.00838558
-0.00836677
-0.00834791
-0.008329
-0.00831005
-0.00829106
-0.00827203
-0.00825295
-0.00823383
-0.00821467
-0.00819546
-0.00817622
-0.00815693
-0.00813761
-0.00811825
-0.00809884
-0.0080794
-0.00805992
-0.0080404
-0.00802085
-0.00800125
-0.00798162
-0.00796196
-0.00794226
-0.00792252
-0.00790275
-0.00788294
-0.00786309
-0.00784322
-0.00782331
-0.00780336
-0.00778338
-0.00776337
-0.00774333
-0.00772325
-0.00770315
-0.00768301
-0.00766284
-0.00764263
-0.0076224
-0.00760214
-0.00758184
-0.00756152
-0.00754117
-0.00752078
-0.00750037
-0.00747993
-0.00745946
-0.00743897
-0.00741844
-0.00739789
-0.0073773
-0.0073567
-0.00733606
-0.0073154
-0.00729471
-0.00727399
-0.00725325
-0.00723248
-0.00721169
-0.00719087
-0.00717003
-0.00714916
-0.00712826
-0.00710734
-0.0070864
-0.00706543
-0.00704444
-0.00702343
-0.00700239
-0.00698133
-0.00696024
-0.00693913
-0.006918
-0.00689685
-0.00687567
-0.00685447
-0.00683325
-0.00681201
-0.00679075
-0.00676946
-0.00674815
-0.00672683
-0.00670548
-0.00668411
-0.00666272
-0.00664131
-0.00661987
-0.00659842
-0.00657695
-0.00655546
-0.00653395
-0.00651242
-0.00649087
-0.0064693
-0.00644771
-0.0064261
-0.00640448
-0.00638283
-0.00636117
-0.00633949
-0.00631779
-0.00629607
-0.00627434
-0.00625259
-0.00623081
-0.00620903
-0.00618722
-0.0061654
-0.00614356
-0.0061217
-0.00609983
-0.00607794
-0.00605603
-0.00603411
-0.00601217
-0.00599021
-0.00596824
-0.00594625
-0.00592425
-0.00590223
-0.0058802
-0.00585815
-0.00583608
-0.005814
-0.0057919
-0.00576979
-0.00574767
-0.00572553
-0.00570337
-0.0056812
-0.00565902
-0.00563682
-0.00561461
-0.00559238
-0.00557014
-0.00554788
-0.00552562
-0.00550333
-0.00548104
-0.00545873
-0.00543641
-0.00541407
-0.00539172
-0.00536936
-0.00534698
-0.0053246
-0.0053022
-0.00527978
-0.00525736
-0.00523492
-0.00521247
-0.00519
-0.00516753
-0.00514504
-0.00512254
-0.00510003
-0.0050775
-0.00505497
-0.00503242
-0.00500986
-0.00498729
-0.00496471
-0.00494212
-0.00491951
-0.0048969
-0.00487427
-0.00485163
-0.00482899
-0.00480633
-0.00478366
-0.00476098
-0.00473828
-0.00471558
-0.00469287
-0.00467015
-0.00464741
-0.00462467
-0.00460192
-0.00457915
-0.00455638
-0.0045336
-0.0045108
-0.004488
-0.00446519
-0.00444237
-0.00441954
-0.00439669
-0.00437384
-0.00435098
-0.00432811
-0.00430524
-0.00428235
-0.00425945
-0.00423655
-0.00421363
-0.00419071
-0.00416778
-0.00414484
-0.00412189
-0.00409893
-0.00407596
-0.00405299
-0.00403001
-0.00400702
-0.00398402
-0.00396101
-0.00393799
-0.00391497
-0.00389194
-0.0038689
-0.00384585
-0.0038228
-0.00379973
-0.00377666
-0.00375358
-0.0037305
-0.0037074
-0.0036843
-0.0036612
-0.00363808
-0.00361496
-0.00359183
-0.00356869
-0.00354555
-0.0035224
-0.00349924
-0.00347608
-0.00345291
-0.00342973
-0.00340654
-0.00338335
-0.00336015
-0.00333695
-0.00331374
-0.00329052
-0.0032673
-0.00324407
-0.00322083
-0.00319759
-0.00317434
-0.00315109
-0.00312783
-0.00310456
-0.00308129
-0.00305801
-0.00303472
-0.00301143
-0.00298814
-0.00296484
-0.00294153
-0.00291822
-0.0028949
-0.00287158
-0.00284825
-0.00282492
-0.00280158
-0.00277823
-0.00275488
-0.00273153
-0.00270817
-0.0026848
-0.00266143
-0.00263806
-0.00261468
-0.00259129
-0.00256791
-0.00254451
-0.00252111
-0.00249771
-0.0024743
-0.00245089
-0.00242747
-0.00240405
-0.00238063
-0.0023572
-0.00233376
-0.00231032
-0.00228688
-0.00226343
-0.00223998
-0.00221653
-0.00219307
-0.00216961
-0.00214614
-0.00212267
-0.00209919
-0.00207572
-0.00205223
-0.00202875
-0.00200526
-0.00198176
-0.00195827
-0.00193477
-0.00191126
-0.00188776
-0.00186425
-0.00184073
-0.00181722
-0.0017937
-0.00177017
-0.00174665
-0.00172312
-0.00169959
-0.00167605
-0.00165251
-0.00162897
-0.00160543
-0.00158188
-0.00155833
-0.00153478
-0.00151122
-0.00148766
-0.0014641
-0.00144054
-0.00141697
-0.00139341
-0.00136983
-0.00134626
-0.00132269
-0.00129911
-0.00127553
-0.00125195
-0.00122836
-0.00120478
-0.00118119
-0.0011576
-0.001134
-0.00111041
-0.00108681
-0.00106321
-0.00103961
-0.00101601
-0.000992408
-0.000968802
-0.000945195
-0.000921586
-0.000897975
-0.000874363
-0.00085075
-0.000827135
-0.000803518
-0.0007799
-0.000756281
-0.000732661
-0.000709039
-0.000685416
-0.000661792
-0.000638166
-0.00061454
-0.000590912
-0.000567284
-0.000543654
-0.000520024
-0.000496392
-0.00047276
-0.000449127
-0.000425494
-0.000401859
-0.000378224
-0.000354588
-0.000330952
-0.000307315
-0.000283677
-0.000260039
-0.0002364
-0.000212762
-0.000189122
-0.000165483
-0.000141843
-0.000118203
-9.45625e-05
-7.0922e-05
-4.72814e-05
-2.36407e-05
)
;

boundaryField
{
    left
    {
        type            calculated;
        value           uniform 0;
    }
    right
    {
        type            calculated;
        value           uniform 0;
    }
    frontBackUpDown
    {
        type            empty;
    }
}


// ************************************************************************* //
