/*--------------------------------*- C++ -*----------------------------------*\
| =========                 |                                                 |
| \\      /  F ield         | OpenFOAM: The Open Source CFD Toolbox           |
|  \\    /   O peration     | Version:  2412                                  |
|   \\  /    A nd           | Website:  www.openfoam.com                      |
|    \\/     M anipulation  |                                                 |
\*---------------------------------------------------------------------------*/
FoamFile
{
    version     2.0;
    format      ascii;
    arch        "LSB;label=32;scalar=64";
    class       volVectorField;
    location    "0.74";
    object      U_0_0_0;
}
// * * * * * * * * * * * * * * * * * * * * * * * * * * * * * * * * * * * * * //

dimensions      [0 1 -1 0 0 0 0];

internalField   nonuniform List<vector> 
800
(
(0.0011837 0 0)
(0.00355112 0 0)
(0.00591854 0 0)
(0.00828594 0 0)
(0.0106533 0 0)
(0.0130207 0 0)
(0.0153881 0 0)
(0.0177554 0 0)
(0.0201227 0 0)
(0.0224899 0 0)
(0.0248572 0 0)
(0.0272243 0 0)
(0.0295915 0 0)
(0.0319585 0 0)
(0.0343256 0 0)
(0.0366925 0 0)
(0.0390594 0 0)
(0.0414263 0 0)
(0.043793 0 0)
(0.0461597 0 0)
(0.0485263 0 0)
(0.0508929 0 0)
(0.0532593 0 0)
(0.0556256 0 0)
(0.0579919 0 0)
(0.060358 0 0)
(0.0627241 0 0)
(0.06509 0 0)
(0.0674558 0 0)
(0.0698215 0 0)
(0.0721871 0 0)
(0.0745526 0 0)
(0.0769179 0 0)
(0.0792831 0 0)
(0.0816482 0 0)
(0.0840131 0 0)
(0.0863779 0 0)
(0.0887425 0 0)
(0.091107 0 0)
(0.0934713 0 0)
(0.0958354 0 0)
(0.0981994 0 0)
(0.100563 0 0)
(0.102927 0 0)
(0.10529 0 0)
(0.107654 0 0)
(0.110017 0 0)
(0.11238 0 0)
(0.114742 0 0)
(0.117105 0 0)
(0.119467 0 0)
(0.121829 0 0)
(0.124191 0 0)
(0.126553 0 0)
(0.128914 0 0)
(0.131275 0 0)
(0.133636 0 0)
(0.135997 0 0)
(0.138357 0 0)
(0.140718 0 0)
(0.143078 0 0)
(0.145437 0 0)
(0.147797 0 0)
(0.150156 0 0)
(0.152515 0 0)
(0.154874 0 0)
(0.157232 0 0)
(0.15959 0 0)
(0.161948 0 0)
(0.164306 0 0)
(0.166663 0 0)
(0.16902 0 0)
(0.171377 0 0)
(0.173733 0 0)
(0.176089 0 0)
(0.178445 0 0)
(0.180801 0 0)
(0.183156 0 0)
(0.185511 0 0)
(0.187865 0 0)
(0.190219 0 0)
(0.192573 0 0)
(0.194926 0 0)
(0.19728 0 0)
(0.199632 0 0)
(0.201985 0 0)
(0.204337 0 0)
(0.206688 0 0)
(0.20904 0 0)
(0.211391 0 0)
(0.213741 0 0)
(0.216091 0 0)
(0.218441 0 0)
(0.22079 0 0)
(0.223139 0 0)
(0.225488 0 0)
(0.227836 0 0)
(0.230184 0 0)
(0.232531 0 0)
(0.234878 0 0)
(0.237224 0 0)
(0.23957 0 0)
(0.241916 0 0)
(0.244261 0 0)
(0.246606 0 0)
(0.24895 0 0)
(0.251294 0 0)
(0.253637 0 0)
(0.25598 0 0)
(0.258322 0 0)
(0.260664 0 0)
(0.263006 0 0)
(0.265347 0 0)
(0.267687 0 0)
(0.270027 0 0)
(0.272366 0 0)
(0.274705 0 0)
(0.277044 0 0)
(0.279382 0 0)
(0.281719 0 0)
(0.284056 0 0)
(0.286392 0 0)
(0.288728 0 0)
(0.291063 0 0)
(0.293398 0 0)
(0.295732 0 0)
(0.298065 0 0)
(0.300398 0 0)
(0.302731 0 0)
(0.305063 0 0)
(0.307394 0 0)
(0.309725 0 0)
(0.312055 0 0)
(0.314384 0 0)
(0.316713 0 0)
(0.319041 0 0)
(0.321369 0 0)
(0.323696 0 0)
(0.326023 0 0)
(0.328348 0 0)
(0.330674 0 0)
(0.332998 0 0)
(0.335322 0 0)
(0.337645 0 0)
(0.339968 0 0)
(0.34229 0 0)
(0.344611 0 0)
(0.346931 0 0)
(0.349251 0 0)
(0.35157 0 0)
(0.353889 0 0)
(0.356207 0 0)
(0.358524 0 0)
(0.36084 0 0)
(0.363156 0 0)
(0.365471 0 0)
(0.367785 0 0)
(0.370098 0 0)
(0.372411 0 0)
(0.374723 0 0)
(0.377034 0 0)
(0.379345 0 0)
(0.381655 0 0)
(0.383963 0 0)
(0.386272 0 0)
(0.388579 0 0)
(0.390886 0 0)
(0.393191 0 0)
(0.395496 0 0)
(0.3978 0 0)
(0.400104 0 0)
(0.402406 0 0)
(0.404708 0 0)
(0.407009 0 0)
(0.409309 0 0)
(0.411608 0 0)
(0.413906 0 0)
(0.416204 0 0)
(0.4185 0 0)
(0.420796 0 0)
(0.423091 0 0)
(0.425385 0 0)
(0.427678 0 0)
(0.42997 0 0)
(0.432261 0 0)
(0.434551 0 0)
(0.436841 0 0)
(0.439129 0 0)
(0.441417 0 0)
(0.443703 0 0)
(0.445989 0 0)
(0.448273 0 0)
(0.450557 0 0)
(0.45284 0 0)
(0.455121 0 0)
(0.457402 0 0)
(0.459682 0 0)
(0.46196 0 0)
(0.464238 0 0)
(0.466515 0 0)
(0.46879 0 0)
(0.471065 0 0)
(0.473338 0 0)
(0.475611 0 0)
(0.477882 0 0)
(0.480153 0 0)
(0.482422 0 0)
(0.48469 0 0)
(0.486957 0 0)
(0.489223 0 0)
(0.491488 0 0)
(0.493752 0 0)
(0.496014 0 0)
(0.498276 0 0)
(0.500536 0 0)
(0.502795 0 0)
(0.505053 0 0)
(0.50731 0 0)
(0.509566 0 0)
(0.51182 0 0)
(0.514074 0 0)
(0.516326 0 0)
(0.518576 0 0)
(0.520826 0 0)
(0.523074 0 0)
(0.525322 0 0)
(0.527567 0 0)
(0.529812 0 0)
(0.532055 0 0)
(0.534297 0 0)
(0.536538 0 0)
(0.538778 0 0)
(0.541016 0 0)
(0.543253 0 0)
(0.545488 0 0)
(0.547722 0 0)
(0.549955 0 0)
(0.552186 0 0)
(0.554417 0 0)
(0.556645 0 0)
(0.558872 0 0)
(0.561098 0 0)
(0.563323 0 0)
(0.565546 0 0)
(0.567767 0 0)
(0.569988 0 0)
(0.572206 0 0)
(0.574424 0 0)
(0.576639 0 0)
(0.578854 0 0)
(0.581066 0 0)
(0.583278 0 0)
(0.585487 0 0)
(0.587695 0 0)
(0.589902 0 0)
(0.592107 0 0)
(0.594311 0 0)
(0.596513 0 0)
(0.598713 0 0)
(0.600912 0 0)
(0.603109 0 0)
(0.605304 0 0)
(0.607498 0 0)
(0.60969 0 0)
(0.611881 0 0)
(0.614069 0 0)
(0.616256 0 0)
(0.618442 0 0)
(0.620625 0 0)
(0.622807 0 0)
(0.624987 0 0)
(0.627166 0 0)
(0.629342 0 0)
(0.631517 0 0)
(0.63369 0 0)
(0.635861 0 0)
(0.638031 0 0)
(0.640198 0 0)
(0.642364 0 0)
(0.644528 0 0)
(0.646689 0 0)
(0.648849 0 0)
(0.651007 0 0)
(0.653163 0 0)
(0.655317 0 0)
(0.65747 0 0)
(0.65962 0 0)
(0.661768 0 0)
(0.663914 0 0)
(0.666058 0 0)
(0.6682 0 0)
(0.67034 0 0)
(0.672478 0 0)
(0.674614 0 0)
(0.676747 0 0)
(0.678879 0 0)
(0.681008 0 0)
(0.683135 0 0)
(0.68526 0 0)
(0.687383 0 0)
(0.689503 0 0)
(0.691622 0 0)
(0.693738 0 0)
(0.695851 0 0)
(0.697963 0 0)
(0.700072 0 0)
(0.702179 0 0)
(0.704283 0 0)
(0.706385 0 0)
(0.708484 0 0)
(0.710582 0 0)
(0.712676 0 0)
(0.714769 0 0)
(0.716858 0 0)
(0.718945 0 0)
(0.72103 0 0)
(0.723112 0 0)
(0.725192 0 0)
(0.727269 0 0)
(0.729343 0 0)
(0.731415 0 0)
(0.733484 0 0)
(0.73555 0 0)
(0.737614 0 0)
(0.739675 0 0)
(0.741733 0 0)
(0.743788 0 0)
(0.74584 0 0)
(0.74789 0 0)
(0.749937 0 0)
(0.751981 0 0)
(0.754022 0 0)
(0.756059 0 0)
(0.758094 0 0)
(0.760126 0 0)
(0.762155 0 0)
(0.764181 0 0)
(0.766204 0 0)
(0.768224 0 0)
(0.77024 0 0)
(0.772254 0 0)
(0.774264 0 0)
(0.776271 0 0)
(0.778274 0 0)
(0.780275 0 0)
(0.782271 0 0)
(0.784265 0 0)
(0.786255 0 0)
(0.788242 0 0)
(0.790225 0 0)
(0.792205 0 0)
(0.794181 0 0)
(0.796154 0 0)
(0.798123 0 0)
(0.800088 0 0)
(0.80205 0 0)
(0.804008 0 0)
(0.805962 0 0)
(0.807912 0 0)
(0.809859 0 0)
(0.811802 0 0)
(0.81374 0 0)
(0.815675 0 0)
(0.817606 0 0)
(0.819532 0 0)
(0.821455 0 0)
(0.823373 0 0)
(0.825288 0 0)
(0.827198 0 0)
(0.829103 0 0)
(0.831005 0 0)
(0.832902 0 0)
(0.834794 0 0)
(0.836683 0 0)
(0.838566 0 0)
(0.840445 0 0)
(0.84232 0 0)
(0.844189 0 0)
(0.846054 0 0)
(0.847914 0 0)
(0.84977 0 0)
(0.85162 0 0)
(0.853465 0 0)
(0.855306 0 0)
(0.857141 0 0)
(0.858971 0 0)
(0.860796 0 0)
(0.862616 0 0)
(0.86443 0 0)
(0.866239 0 0)
(0.868043 0 0)
(0.869841 0 0)
(0.871633 0 0)
(0.87342 0 0)
(0.8752 0 0)
(0.876975 0 0)
(0.87874 0 0)
(0.880634 0 0)
(0.878757 0 0)
(0.490055 0 0)
(-0.488763 0 0)
(-0.878657 0 0)
(-0.880637 0 0)
(-0.878738 0 0)
(-0.876973 0 0)
(-0.875198 0 0)
(-0.873417 0 0)
(-0.871631 0 0)
(-0.869838 0 0)
(-0.86804 0 0)
(-0.866237 0 0)
(-0.864428 0 0)
(-0.862614 0 0)
(-0.860794 0 0)
(-0.858969 0 0)
(-0.857139 0 0)
(-0.855304 0 0)
(-0.853463 0 0)
(-0.851618 0 0)
(-0.849767 0 0)
(-0.847912 0 0)
(-0.846052 0 0)
(-0.844187 0 0)
(-0.842317 0 0)
(-0.840443 0 0)
(-0.838564 0 0)
(-0.83668 0 0)
(-0.834792 0 0)
(-0.832899 0 0)
(-0.831002 0 0)
(-0.829101 0 0)
(-0.827195 0 0)
(-0.825285 0 0)
(-0.823371 0 0)
(-0.821453 0 0)
(-0.81953 0 0)
(-0.817603 0 0)
(-0.815673 0 0)
(-0.813738 0 0)
(-0.811799 0 0)
(-0.809856 0 0)
(-0.80791 0 0)
(-0.80596 0 0)
(-0.804005 0 0)
(-0.802047 0 0)
(-0.800086 0 0)
(-0.79812 0 0)
(-0.796151 0 0)
(-0.794179 0 0)
(-0.792203 0 0)
(-0.790223 0 0)
(-0.78824 0 0)
(-0.786253 0 0)
(-0.784263 0 0)
(-0.782269 0 0)
(-0.780272 0 0)
(-0.778272 0 0)
(-0.776268 0 0)
(-0.774261 0 0)
(-0.772251 0 0)
(-0.770238 0 0)
(-0.768221 0 0)
(-0.766202 0 0)
(-0.764179 0 0)
(-0.762153 0 0)
(-0.760124 0 0)
(-0.758092 0 0)
(-0.756057 0 0)
(-0.754019 0 0)
(-0.751978 0 0)
(-0.749934 0 0)
(-0.747888 0 0)
(-0.745838 0 0)
(-0.743786 0 0)
(-0.74173 0 0)
(-0.739672 0 0)
(-0.737611 0 0)
(-0.735548 0 0)
(-0.733481 0 0)
(-0.731412 0 0)
(-0.729341 0 0)
(-0.727266 0 0)
(-0.72519 0 0)
(-0.72311 0 0)
(-0.721028 0 0)
(-0.718943 0 0)
(-0.716856 0 0)
(-0.714766 0 0)
(-0.712674 0 0)
(-0.710579 0 0)
(-0.708482 0 0)
(-0.706383 0 0)
(-0.704281 0 0)
(-0.702176 0 0)
(-0.70007 0 0)
(-0.697961 0 0)
(-0.695849 0 0)
(-0.693735 0 0)
(-0.691619 0 0)
(-0.689501 0 0)
(-0.687381 0 0)
(-0.685258 0 0)
(-0.683133 0 0)
(-0.681006 0 0)
(-0.678877 0 0)
(-0.676745 0 0)
(-0.674611 0 0)
(-0.672476 0 0)
(-0.670338 0 0)
(-0.668198 0 0)
(-0.666056 0 0)
(-0.663912 0 0)
(-0.661766 0 0)
(-0.659618 0 0)
(-0.657467 0 0)
(-0.655315 0 0)
(-0.653161 0 0)
(-0.651005 0 0)
(-0.648847 0 0)
(-0.646687 0 0)
(-0.644525 0 0)
(-0.642362 0 0)
(-0.640196 0 0)
(-0.638029 0 0)
(-0.635859 0 0)
(-0.633688 0 0)
(-0.631515 0 0)
(-0.62934 0 0)
(-0.627164 0 0)
(-0.624985 0 0)
(-0.622805 0 0)
(-0.620623 0 0)
(-0.61844 0 0)
(-0.616254 0 0)
(-0.614067 0 0)
(-0.611879 0 0)
(-0.609688 0 0)
(-0.607496 0 0)
(-0.605302 0 0)
(-0.603107 0 0)
(-0.60091 0 0)
(-0.598711 0 0)
(-0.596511 0 0)
(-0.594309 0 0)
(-0.592105 0 0)
(-0.5899 0 0)
(-0.587694 0 0)
(-0.585486 0 0)
(-0.583276 0 0)
(-0.581065 0 0)
(-0.578852 0 0)
(-0.576638 0 0)
(-0.574422 0 0)
(-0.572205 0 0)
(-0.569986 0 0)
(-0.567766 0 0)
(-0.565544 0 0)
(-0.563321 0 0)
(-0.561097 0 0)
(-0.558871 0 0)
(-0.556644 0 0)
(-0.554415 0 0)
(-0.552185 0 0)
(-0.549953 0 0)
(-0.547721 0 0)
(-0.545486 0 0)
(-0.543251 0 0)
(-0.541014 0 0)
(-0.538776 0 0)
(-0.536537 0 0)
(-0.534296 0 0)
(-0.532054 0 0)
(-0.52981 0 0)
(-0.527566 0 0)
(-0.52532 0 0)
(-0.523073 0 0)
(-0.520825 0 0)
(-0.518575 0 0)
(-0.516324 0 0)
(-0.514072 0 0)
(-0.511819 0 0)
(-0.509564 0 0)
(-0.507309 0 0)
(-0.505052 0 0)
(-0.502794 0 0)
(-0.500535 0 0)
(-0.498274 0 0)
(-0.496013 0 0)
(-0.49375 0 0)
(-0.491487 0 0)
(-0.489222 0 0)
(-0.486956 0 0)
(-0.484689 0 0)
(-0.482421 0 0)
(-0.480151 0 0)
(-0.477881 0 0)
(-0.47561 0 0)
(-0.473337 0 0)
(-0.471064 0 0)
(-0.468789 0 0)
(-0.466514 0 0)
(-0.464237 0 0)
(-0.461959 0 0)
(-0.459681 0 0)
(-0.457401 0 0)
(-0.45512 0 0)
(-0.452839 0 0)
(-0.450556 0 0)
(-0.448272 0 0)
(-0.445988 0 0)
(-0.443702 0 0)
(-0.441416 0 0)
(-0.439128 0 0)
(-0.43684 0 0)
(-0.43455 0 0)
(-0.43226 0 0)
(-0.429969 0 0)
(-0.427677 0 0)
(-0.425384 0 0)
(-0.42309 0 0)
(-0.420795 0 0)
(-0.418499 0 0)
(-0.416203 0 0)
(-0.413905 0 0)
(-0.411607 0 0)
(-0.409308 0 0)
(-0.407008 0 0)
(-0.404707 0 0)
(-0.402405 0 0)
(-0.400103 0 0)
(-0.3978 0 0)
(-0.395495 0 0)
(-0.39319 0 0)
(-0.390885 0 0)
(-0.388578 0 0)
(-0.386271 0 0)
(-0.383963 0 0)
(-0.381654 0 0)
(-0.379344 0 0)
(-0.377034 0 0)
(-0.374722 0 0)
(-0.37241 0 0)
(-0.370098 0 0)
(-0.367784 0 0)
(-0.36547 0 0)
(-0.363155 0 0)
(-0.360839 0 0)
(-0.358523 0 0)
(-0.356206 0 0)
(-0.353888 0 0)
(-0.35157 0 0)
(-0.349251 0 0)
(-0.346931 0 0)
(-0.34461 0 0)
(-0.342289 0 0)
(-0.339967 0 0)
(-0.337644 0 0)
(-0.335321 0 0)
(-0.332997 0 0)
(-0.330673 0 0)
(-0.328348 0 0)
(-0.326022 0 0)
(-0.323696 0 0)
(-0.321368 0 0)
(-0.319041 0 0)
(-0.316713 0 0)
(-0.314384 0 0)
(-0.312054 0 0)
(-0.309724 0 0)
(-0.307393 0 0)
(-0.305062 0 0)
(-0.30273 0 0)
(-0.300398 0 0)
(-0.298065 0 0)
(-0.295731 0 0)
(-0.293397 0 0)
(-0.291063 0 0)
(-0.288727 0 0)
(-0.286392 0 0)
(-0.284055 0 0)
(-0.281718 0 0)
(-0.279381 0 0)
(-0.277043 0 0)
(-0.274705 0 0)
(-0.272366 0 0)
(-0.270026 0 0)
(-0.267687 0 0)
(-0.265346 0 0)
(-0.263005 0 0)
(-0.260664 0 0)
(-0.258322 0 0)
(-0.25598 0 0)
(-0.253637 0 0)
(-0.251293 0 0)
(-0.24895 0 0)
(-0.246605 0 0)
(-0.244261 0 0)
(-0.241916 0 0)
(-0.23957 0 0)
(-0.237224 0 0)
(-0.234878 0 0)
(-0.232531 0 0)
(-0.230183 0 0)
(-0.227836 0 0)
(-0.225488 0 0)
(-0.223139 0 0)
(-0.22079 0 0)
(-0.218441 0 0)
(-0.216091 0 0)
(-0.213741 0 0)
(-0.21139 0 0)
(-0.209039 0 0)
(-0.206688 0 0)
(-0.204336 0 0)
(-0.201984 0 0)
(-0.199632 0 0)
(-0.197279 0 0)
(-0.194926 0 0)
(-0.192573 0 0)
(-0.190219 0 0)
(-0.187865 0 0)
(-0.18551 0 0)
(-0.183156 0 0)
(-0.1808 0 0)
(-0.178445 0 0)
(-0.176089 0 0)
(-0.173733 0 0)
(-0.171377 0 0)
(-0.16902 0 0)
(-0.166663 0 0)
(-0.164306 0 0)
(-0.161948 0 0)
(-0.15959 0 0)
(-0.157232 0 0)
(-0.154874 0 0)
(-0.152515 0 0)
(-0.150156 0 0)
(-0.147797 0 0)
(-0.145437 0 0)
(-0.143078 0 0)
(-0.140718 0 0)
(-0.138357 0 0)
(-0.135997 0 0)
(-0.133636 0 0)
(-0.131275 0 0)
(-0.128914 0 0)
(-0.126553 0 0)
(-0.124191 0 0)
(-0.121829 0 0)
(-0.119467 0 0)
(-0.117105 0 0)
(-0.114742 0 0)
(-0.112379 0 0)
(-0.110017 0 0)
(-0.107653 0 0)
(-0.10529 0 0)
(-0.102927 0 0)
(-0.100563 0 0)
(-0.0981993 0 0)
(-0.0958353 0 0)
(-0.0934712 0 0)
(-0.0911069 0 0)
(-0.0887424 0 0)
(-0.0863778 0 0)
(-0.084013 0 0)
(-0.0816481 0 0)
(-0.0792831 0 0)
(-0.0769179 0 0)
(-0.0745525 0 0)
(-0.0721871 0 0)
(-0.0698215 0 0)
(-0.0674558 0 0)
(-0.06509 0 0)
(-0.0627241 0 0)
(-0.060358 0 0)
(-0.0579919 0 0)
(-0.0556256 0 0)
(-0.0532593 0 0)
(-0.0508928 0 0)
(-0.0485263 0 0)
(-0.0461597 0 0)
(-0.043793 0 0)
(-0.0414263 0 0)
(-0.0390594 0 0)
(-0.0366925 0 0)
(-0.0343256 0 0)
(-0.0319585 0 0)
(-0.0295915 0 0)
(-0.0272243 0 0)
(-0.0248572 0 0)
(-0.0224899 0 0)
(-0.0201227 0 0)
(-0.0177554 0 0)
(-0.0153881 0 0)
(-0.0130207 0 0)
(-0.0106533 0 0)
(-0.00828595 0 0)
(-0.00591855 0 0)
(-0.00355113 0 0)
(-0.00118371 0 0)
)
;

boundaryField
{
    left
    {
        type            fixedValue;
        value           uniform (0 0 0);
    }
    right
    {
        type            fixedValue;
        value           uniform (0 0 0);
    }
    frontBackUpDown
    {
        type            empty;
    }
}


// ************************************************************************* //
