/*--------------------------------*- C++ -*----------------------------------*\
| =========                 |                                                 |
| \\      /  F ield         | OpenFOAM: The Open Source CFD Toolbox           |
|  \\    /   O peration     | Version:  2412                                  |
|   \\  /    A nd           | Website:  www.openfoam.com                      |
|    \\/     M anipulation  |                                                 |
\*---------------------------------------------------------------------------*/
FoamFile
{
    version     2.0;
    format      ascii;
    arch        "LSB;label=32;scalar=64";
    class       volVectorField;
    location    "0.74";
    object      U_0_0;
}
// * * * * * * * * * * * * * * * * * * * * * * * * * * * * * * * * * * * * * //

dimensions      [0 1 -1 0 0 0 0];

internalField   nonuniform List<vector> 
800
(
(0.00118314 0 0)
(0.00354944 0 0)
(0.00591574 0 0)
(0.00828203 0 0)
(0.0106483 0 0)
(0.0130146 0 0)
(0.0153808 0 0)
(0.017747 0 0)
(0.0201132 0 0)
(0.0224793 0 0)
(0.0248454 0 0)
(0.0272115 0 0)
(0.0295775 0 0)
(0.0319435 0 0)
(0.0343094 0 0)
(0.0366752 0 0)
(0.039041 0 0)
(0.0414067 0 0)
(0.0437724 0 0)
(0.0461379 0 0)
(0.0485034 0 0)
(0.0508688 0 0)
(0.0532342 0 0)
(0.0555994 0 0)
(0.0579645 0 0)
(0.0603295 0 0)
(0.0626945 0 0)
(0.0650593 0 0)
(0.067424 0 0)
(0.0697886 0 0)
(0.0721531 0 0)
(0.0745174 0 0)
(0.0768816 0 0)
(0.0792457 0 0)
(0.0816097 0 0)
(0.0839735 0 0)
(0.0863371 0 0)
(0.0887006 0 0)
(0.091064 0 0)
(0.0934272 0 0)
(0.0957902 0 0)
(0.0981531 0 0)
(0.100516 0 0)
(0.102878 0 0)
(0.105241 0 0)
(0.107603 0 0)
(0.109965 0 0)
(0.112327 0 0)
(0.114688 0 0)
(0.11705 0 0)
(0.119411 0 0)
(0.121772 0 0)
(0.124132 0 0)
(0.126493 0 0)
(0.128853 0 0)
(0.131213 0 0)
(0.133573 0 0)
(0.135933 0 0)
(0.138292 0 0)
(0.140651 0 0)
(0.14301 0 0)
(0.145369 0 0)
(0.147727 0 0)
(0.150086 0 0)
(0.152443 0 0)
(0.154801 0 0)
(0.157158 0 0)
(0.159515 0 0)
(0.161872 0 0)
(0.164229 0 0)
(0.166585 0 0)
(0.168941 0 0)
(0.171296 0 0)
(0.173652 0 0)
(0.176007 0 0)
(0.178361 0 0)
(0.180716 0 0)
(0.18307 0 0)
(0.185423 0 0)
(0.187777 0 0)
(0.19013 0 0)
(0.192483 0 0)
(0.194835 0 0)
(0.197187 0 0)
(0.199539 0 0)
(0.20189 0 0)
(0.204241 0 0)
(0.206591 0 0)
(0.208942 0 0)
(0.211291 0 0)
(0.213641 0 0)
(0.21599 0 0)
(0.218339 0 0)
(0.220687 0 0)
(0.223035 0 0)
(0.225382 0 0)
(0.227729 0 0)
(0.230076 0 0)
(0.232422 0 0)
(0.234768 0 0)
(0.237113 0 0)
(0.239458 0 0)
(0.241803 0 0)
(0.244147 0 0)
(0.24649 0 0)
(0.248834 0 0)
(0.251176 0 0)
(0.253519 0 0)
(0.25586 0 0)
(0.258202 0 0)
(0.260542 0 0)
(0.262883 0 0)
(0.265223 0 0)
(0.267562 0 0)
(0.269901 0 0)
(0.272239 0 0)
(0.274577 0 0)
(0.276914 0 0)
(0.279251 0 0)
(0.281588 0 0)
(0.283923 0 0)
(0.286259 0 0)
(0.288593 0 0)
(0.290928 0 0)
(0.293261 0 0)
(0.295594 0 0)
(0.297927 0 0)
(0.300259 0 0)
(0.30259 0 0)
(0.304921 0 0)
(0.307251 0 0)
(0.309581 0 0)
(0.31191 0 0)
(0.314238 0 0)
(0.316566 0 0)
(0.318893 0 0)
(0.32122 0 0)
(0.323546 0 0)
(0.325871 0 0)
(0.328196 0 0)
(0.33052 0 0)
(0.332844 0 0)
(0.335166 0 0)
(0.337489 0 0)
(0.33981 0 0)
(0.342131 0 0)
(0.344451 0 0)
(0.346771 0 0)
(0.34909 0 0)
(0.351408 0 0)
(0.353725 0 0)
(0.356042 0 0)
(0.358358 0 0)
(0.360673 0 0)
(0.362988 0 0)
(0.365302 0 0)
(0.367615 0 0)
(0.369928 0 0)
(0.372239 0 0)
(0.37455 0 0)
(0.376861 0 0)
(0.37917 0 0)
(0.381479 0 0)
(0.383787 0 0)
(0.386094 0 0)
(0.3884 0 0)
(0.390706 0 0)
(0.39301 0 0)
(0.395314 0 0)
(0.397618 0 0)
(0.39992 0 0)
(0.402221 0 0)
(0.404522 0 0)
(0.406822 0 0)
(0.409121 0 0)
(0.411419 0 0)
(0.413717 0 0)
(0.416013 0 0)
(0.418309 0 0)
(0.420603 0 0)
(0.422897 0 0)
(0.42519 0 0)
(0.427482 0 0)
(0.429773 0 0)
(0.432064 0 0)
(0.434353 0 0)
(0.436641 0 0)
(0.438929 0 0)
(0.441215 0 0)
(0.443501 0 0)
(0.445785 0 0)
(0.448069 0 0)
(0.450352 0 0)
(0.452633 0 0)
(0.454914 0 0)
(0.457194 0 0)
(0.459473 0 0)
(0.46175 0 0)
(0.464027 0 0)
(0.466303 0 0)
(0.468578 0 0)
(0.470851 0 0)
(0.473124 0 0)
(0.475395 0 0)
(0.477666 0 0)
(0.479935 0 0)
(0.482204 0 0)
(0.484471 0 0)
(0.486737 0 0)
(0.489002 0 0)
(0.491266 0 0)
(0.493529 0 0)
(0.49579 0 0)
(0.498051 0 0)
(0.50031 0 0)
(0.502569 0 0)
(0.504826 0 0)
(0.507082 0 0)
(0.509336 0 0)
(0.51159 0 0)
(0.513842 0 0)
(0.516094 0 0)
(0.518344 0 0)
(0.520592 0 0)
(0.52284 0 0)
(0.525086 0 0)
(0.527331 0 0)
(0.529575 0 0)
(0.531817 0 0)
(0.534058 0 0)
(0.536298 0 0)
(0.538537 0 0)
(0.540774 0 0)
(0.54301 0 0)
(0.545245 0 0)
(0.547478 0 0)
(0.54971 0 0)
(0.551941 0 0)
(0.55417 0 0)
(0.556398 0 0)
(0.558624 0 0)
(0.560849 0 0)
(0.563073 0 0)
(0.565295 0 0)
(0.567516 0 0)
(0.569735 0 0)
(0.571953 0 0)
(0.574169 0 0)
(0.576384 0 0)
(0.578598 0 0)
(0.58081 0 0)
(0.58302 0 0)
(0.585229 0 0)
(0.587437 0 0)
(0.589642 0 0)
(0.591847 0 0)
(0.594049 0 0)
(0.59625 0 0)
(0.59845 0 0)
(0.600648 0 0)
(0.602844 0 0)
(0.605039 0 0)
(0.607232 0 0)
(0.609423 0 0)
(0.611613 0 0)
(0.613801 0 0)
(0.615987 0 0)
(0.618172 0 0)
(0.620355 0 0)
(0.622536 0 0)
(0.624716 0 0)
(0.626893 0 0)
(0.629069 0 0)
(0.631243 0 0)
(0.633415 0 0)
(0.635586 0 0)
(0.637754 0 0)
(0.639921 0 0)
(0.642086 0 0)
(0.644249 0 0)
(0.64641 0 0)
(0.64857 0 0)
(0.650727 0 0)
(0.652882 0 0)
(0.655036 0 0)
(0.657187 0 0)
(0.659337 0 0)
(0.661484 0 0)
(0.66363 0 0)
(0.665773 0 0)
(0.667914 0 0)
(0.670054 0 0)
(0.672191 0 0)
(0.674326 0 0)
(0.676459 0 0)
(0.67859 0 0)
(0.680719 0 0)
(0.682845 0 0)
(0.68497 0 0)
(0.687092 0 0)
(0.689212 0 0)
(0.691329 0 0)
(0.693445 0 0)
(0.695558 0 0)
(0.697669 0 0)
(0.699777 0 0)
(0.701883 0 0)
(0.703987 0 0)
(0.706089 0 0)
(0.708188 0 0)
(0.710284 0 0)
(0.712378 0 0)
(0.71447 0 0)
(0.716559 0 0)
(0.718646 0 0)
(0.72073 0 0)
(0.722812 0 0)
(0.724891 0 0)
(0.726967 0 0)
(0.729041 0 0)
(0.731112 0 0)
(0.733181 0 0)
(0.735247 0 0)
(0.73731 0 0)
(0.73937 0 0)
(0.741428 0 0)
(0.743483 0 0)
(0.745535 0 0)
(0.747584 0 0)
(0.74963 0 0)
(0.751674 0 0)
(0.753714 0 0)
(0.755752 0 0)
(0.757787 0 0)
(0.759818 0 0)
(0.761847 0 0)
(0.763872 0 0)
(0.765895 0 0)
(0.767914 0 0)
(0.76993 0 0)
(0.771943 0 0)
(0.773953 0 0)
(0.77596 0 0)
(0.777963 0 0)
(0.779963 0 0)
(0.78196 0 0)
(0.783953 0 0)
(0.785943 0 0)
(0.787929 0 0)
(0.789912 0 0)
(0.791892 0 0)
(0.793868 0 0)
(0.79584 0 0)
(0.797809 0 0)
(0.799774 0 0)
(0.801736 0 0)
(0.803694 0 0)
(0.805648 0 0)
(0.807598 0 0)
(0.809544 0 0)
(0.811487 0 0)
(0.813425 0 0)
(0.81536 0 0)
(0.817291 0 0)
(0.819217 0 0)
(0.82114 0 0)
(0.823058 0 0)
(0.824972 0 0)
(0.826882 0 0)
(0.828788 0 0)
(0.830689 0 0)
(0.832586 0 0)
(0.834479 0 0)
(0.836367 0 0)
(0.838251 0 0)
(0.84013 0 0)
(0.842004 0 0)
(0.843874 0 0)
(0.845739 0 0)
(0.8476 0 0)
(0.849455 0 0)
(0.851306 0 0)
(0.853151 0 0)
(0.854992 0 0)
(0.856827 0 0)
(0.858658 0 0)
(0.860483 0 0)
(0.862303 0 0)
(0.864117 0 0)
(0.865927 0 0)
(0.86773 0 0)
(0.869529 0 0)
(0.871321 0 0)
(0.873108 0 0)
(0.874889 0 0)
(0.876665 0 0)
(0.87843 0 0)
(0.880328 0 0)
(0.878363 0 0)
(0.489713 0 0)
(-0.488421 0 0)
(-0.878262 0 0)
(-0.880331 0 0)
(-0.878427 0 0)
(-0.876663 0 0)
(-0.874887 0 0)
(-0.873106 0 0)
(-0.871319 0 0)
(-0.869526 0 0)
(-0.867728 0 0)
(-0.865924 0 0)
(-0.864115 0 0)
(-0.8623 0 0)
(-0.860481 0 0)
(-0.858655 0 0)
(-0.856825 0 0)
(-0.854989 0 0)
(-0.853149 0 0)
(-0.851303 0 0)
(-0.849453 0 0)
(-0.847597 0 0)
(-0.845737 0 0)
(-0.843872 0 0)
(-0.842002 0 0)
(-0.840128 0 0)
(-0.838249 0 0)
(-0.836365 0 0)
(-0.834477 0 0)
(-0.832584 0 0)
(-0.830687 0 0)
(-0.828786 0 0)
(-0.82688 0 0)
(-0.82497 0 0)
(-0.823056 0 0)
(-0.821137 0 0)
(-0.819215 0 0)
(-0.817288 0 0)
(-0.815358 0 0)
(-0.813423 0 0)
(-0.811484 0 0)
(-0.809542 0 0)
(-0.807595 0 0)
(-0.805645 0 0)
(-0.803691 0 0)
(-0.801733 0 0)
(-0.799772 0 0)
(-0.797807 0 0)
(-0.795838 0 0)
(-0.793866 0 0)
(-0.79189 0 0)
(-0.78991 0 0)
(-0.787927 0 0)
(-0.785941 0 0)
(-0.783951 0 0)
(-0.781957 0 0)
(-0.779961 0 0)
(-0.777961 0 0)
(-0.775957 0 0)
(-0.773951 0 0)
(-0.771941 0 0)
(-0.769928 0 0)
(-0.767912 0 0)
(-0.765892 0 0)
(-0.76387 0 0)
(-0.761844 0 0)
(-0.759816 0 0)
(-0.757784 0 0)
(-0.75575 0 0)
(-0.753712 0 0)
(-0.751671 0 0)
(-0.749628 0 0)
(-0.747582 0 0)
(-0.745533 0 0)
(-0.74348 0 0)
(-0.741426 0 0)
(-0.739368 0 0)
(-0.737308 0 0)
(-0.735244 0 0)
(-0.733179 0 0)
(-0.73111 0 0)
(-0.729039 0 0)
(-0.726965 0 0)
(-0.724889 0 0)
(-0.72281 0 0)
(-0.720728 0 0)
(-0.718644 0 0)
(-0.716557 0 0)
(-0.714468 0 0)
(-0.712376 0 0)
(-0.710282 0 0)
(-0.708185 0 0)
(-0.706086 0 0)
(-0.703985 0 0)
(-0.701881 0 0)
(-0.699775 0 0)
(-0.697666 0 0)
(-0.695556 0 0)
(-0.693442 0 0)
(-0.691327 0 0)
(-0.689209 0 0)
(-0.687089 0 0)
(-0.684967 0 0)
(-0.682843 0 0)
(-0.680716 0 0)
(-0.678588 0 0)
(-0.676457 0 0)
(-0.674324 0 0)
(-0.672189 0 0)
(-0.670052 0 0)
(-0.667912 0 0)
(-0.665771 0 0)
(-0.663628 0 0)
(-0.661482 0 0)
(-0.659335 0 0)
(-0.657185 0 0)
(-0.655034 0 0)
(-0.65288 0 0)
(-0.650725 0 0)
(-0.648568 0 0)
(-0.646408 0 0)
(-0.644247 0 0)
(-0.642084 0 0)
(-0.639919 0 0)
(-0.637752 0 0)
(-0.635584 0 0)
(-0.633413 0 0)
(-0.631241 0 0)
(-0.629067 0 0)
(-0.626891 0 0)
(-0.624714 0 0)
(-0.622534 0 0)
(-0.620353 0 0)
(-0.61817 0 0)
(-0.615985 0 0)
(-0.613799 0 0)
(-0.611611 0 0)
(-0.609421 0 0)
(-0.60723 0 0)
(-0.605037 0 0)
(-0.602842 0 0)
(-0.600646 0 0)
(-0.598448 0 0)
(-0.596249 0 0)
(-0.594048 0 0)
(-0.591845 0 0)
(-0.589641 0 0)
(-0.587435 0 0)
(-0.585227 0 0)
(-0.583018 0 0)
(-0.580808 0 0)
(-0.578596 0 0)
(-0.576383 0 0)
(-0.574168 0 0)
(-0.571951 0 0)
(-0.569733 0 0)
(-0.567514 0 0)
(-0.565293 0 0)
(-0.563071 0 0)
(-0.560848 0 0)
(-0.558622 0 0)
(-0.556396 0 0)
(-0.554168 0 0)
(-0.551939 0 0)
(-0.549708 0 0)
(-0.547476 0 0)
(-0.545243 0 0)
(-0.543009 0 0)
(-0.540773 0 0)
(-0.538535 0 0)
(-0.536297 0 0)
(-0.534057 0 0)
(-0.531816 0 0)
(-0.529573 0 0)
(-0.527329 0 0)
(-0.525084 0 0)
(-0.522838 0 0)
(-0.520591 0 0)
(-0.518342 0 0)
(-0.516092 0 0)
(-0.513841 0 0)
(-0.511589 0 0)
(-0.509335 0 0)
(-0.50708 0 0)
(-0.504824 0 0)
(-0.502567 0 0)
(-0.500309 0 0)
(-0.49805 0 0)
(-0.495789 0 0)
(-0.493527 0 0)
(-0.491265 0 0)
(-0.489001 0 0)
(-0.486736 0 0)
(-0.484469 0 0)
(-0.482202 0 0)
(-0.479934 0 0)
(-0.477664 0 0)
(-0.475394 0 0)
(-0.473122 0 0)
(-0.47085 0 0)
(-0.468576 0 0)
(-0.466302 0 0)
(-0.464026 0 0)
(-0.461749 0 0)
(-0.459471 0 0)
(-0.457193 0 0)
(-0.454913 0 0)
(-0.452632 0 0)
(-0.450351 0 0)
(-0.448068 0 0)
(-0.445784 0 0)
(-0.4435 0 0)
(-0.441214 0 0)
(-0.438928 0 0)
(-0.43664 0 0)
(-0.434352 0 0)
(-0.432062 0 0)
(-0.429772 0 0)
(-0.427481 0 0)
(-0.425189 0 0)
(-0.422896 0 0)
(-0.420602 0 0)
(-0.418308 0 0)
(-0.416012 0 0)
(-0.413716 0 0)
(-0.411418 0 0)
(-0.40912 0 0)
(-0.406821 0 0)
(-0.404521 0 0)
(-0.402221 0 0)
(-0.399919 0 0)
(-0.397617 0 0)
(-0.395314 0 0)
(-0.39301 0 0)
(-0.390705 0 0)
(-0.388399 0 0)
(-0.386093 0 0)
(-0.383786 0 0)
(-0.381478 0 0)
(-0.379169 0 0)
(-0.37686 0 0)
(-0.374549 0 0)
(-0.372239 0 0)
(-0.369927 0 0)
(-0.367614 0 0)
(-0.365301 0 0)
(-0.362987 0 0)
(-0.360673 0 0)
(-0.358357 0 0)
(-0.356041 0 0)
(-0.353725 0 0)
(-0.351407 0 0)
(-0.349089 0 0)
(-0.34677 0 0)
(-0.344451 0 0)
(-0.34213 0 0)
(-0.33981 0 0)
(-0.337488 0 0)
(-0.335166 0 0)
(-0.332843 0 0)
(-0.33052 0 0)
(-0.328195 0 0)
(-0.325871 0 0)
(-0.323545 0 0)
(-0.321219 0 0)
(-0.318893 0 0)
(-0.316565 0 0)
(-0.314238 0 0)
(-0.311909 0 0)
(-0.30958 0 0)
(-0.30725 0 0)
(-0.30492 0 0)
(-0.302589 0 0)
(-0.300258 0 0)
(-0.297926 0 0)
(-0.295594 0 0)
(-0.293261 0 0)
(-0.290927 0 0)
(-0.288593 0 0)
(-0.286258 0 0)
(-0.283923 0 0)
(-0.281587 0 0)
(-0.279251 0 0)
(-0.276914 0 0)
(-0.274577 0 0)
(-0.272239 0 0)
(-0.2699 0 0)
(-0.267562 0 0)
(-0.265222 0 0)
(-0.262882 0 0)
(-0.260542 0 0)
(-0.258201 0 0)
(-0.25586 0 0)
(-0.253518 0 0)
(-0.251176 0 0)
(-0.248833 0 0)
(-0.24649 0 0)
(-0.244146 0 0)
(-0.241802 0 0)
(-0.239458 0 0)
(-0.237113 0 0)
(-0.234768 0 0)
(-0.232422 0 0)
(-0.230076 0 0)
(-0.227729 0 0)
(-0.225382 0 0)
(-0.223034 0 0)
(-0.220687 0 0)
(-0.218338 0 0)
(-0.21599 0 0)
(-0.213641 0 0)
(-0.211291 0 0)
(-0.208941 0 0)
(-0.206591 0 0)
(-0.204241 0 0)
(-0.20189 0 0)
(-0.199538 0 0)
(-0.197187 0 0)
(-0.194835 0 0)
(-0.192482 0 0)
(-0.19013 0 0)
(-0.187777 0 0)
(-0.185423 0 0)
(-0.18307 0 0)
(-0.180715 0 0)
(-0.178361 0 0)
(-0.176006 0 0)
(-0.173651 0 0)
(-0.171296 0 0)
(-0.168941 0 0)
(-0.166585 0 0)
(-0.164229 0 0)
(-0.161872 0 0)
(-0.159515 0 0)
(-0.157158 0 0)
(-0.154801 0 0)
(-0.152443 0 0)
(-0.150085 0 0)
(-0.147727 0 0)
(-0.145369 0 0)
(-0.14301 0 0)
(-0.140651 0 0)
(-0.138292 0 0)
(-0.135933 0 0)
(-0.133573 0 0)
(-0.131213 0 0)
(-0.128853 0 0)
(-0.126493 0 0)
(-0.124132 0 0)
(-0.121772 0 0)
(-0.119411 0 0)
(-0.117049 0 0)
(-0.114688 0 0)
(-0.112326 0 0)
(-0.109965 0 0)
(-0.107603 0 0)
(-0.105241 0 0)
(-0.102878 0 0)
(-0.100516 0 0)
(-0.098153 0 0)
(-0.0957902 0 0)
(-0.0934271 0 0)
(-0.0910639 0 0)
(-0.0887006 0 0)
(-0.0863371 0 0)
(-0.0839734 0 0)
(-0.0816096 0 0)
(-0.0792457 0 0)
(-0.0768816 0 0)
(-0.0745174 0 0)
(-0.072153 0 0)
(-0.0697886 0 0)
(-0.067424 0 0)
(-0.0650593 0 0)
(-0.0626944 0 0)
(-0.0603295 0 0)
(-0.0579645 0 0)
(-0.0555994 0 0)
(-0.0532341 0 0)
(-0.0508688 0 0)
(-0.0485034 0 0)
(-0.0461379 0 0)
(-0.0437724 0 0)
(-0.0414067 0 0)
(-0.039041 0 0)
(-0.0366752 0 0)
(-0.0343094 0 0)
(-0.0319435 0 0)
(-0.0295775 0 0)
(-0.0272115 0 0)
(-0.0248454 0 0)
(-0.0224793 0 0)
(-0.0201132 0 0)
(-0.017747 0 0)
(-0.0153808 0 0)
(-0.0130146 0 0)
(-0.0106483 0 0)
(-0.00828204 0 0)
(-0.00591575 0 0)
(-0.00354946 0 0)
(-0.00118315 0 0)
)
;

boundaryField
{
    left
    {
        type            fixedValue;
        value           uniform (0 0 0);
    }
    right
    {
        type            fixedValue;
        value           uniform (0 0 0);
    }
    frontBackUpDown
    {
        type            empty;
    }
}


// ************************************************************************* //
