/*--------------------------------*- C++ -*----------------------------------*\
| =========                 |                                                 |
| \\      /  F ield         | OpenFOAM: The Open Source CFD Toolbox           |
|  \\    /   O peration     | Version:  2412                                  |
|   \\  /    A nd           | Website:  www.openfoam.com                      |
|    \\/     M anipulation  |                                                 |
\*---------------------------------------------------------------------------*/
FoamFile
{
    version     2.0;
    format      ascii;
    arch        "LSB;label=32;scalar=64";
    class       volVectorField;
    location    "0.79";
    object      U;
}
// * * * * * * * * * * * * * * * * * * * * * * * * * * * * * * * * * * * * * //

dimensions      [0 1 -1 0 0 0 0];

internalField   nonuniform List<vector> 
800
(
(0.00112877 0 0)
(0.00338632 0 0)
(0.00564387 0 0)
(0.00790142 0 0)
(0.0101589 0 0)
(0.0124165 0 0)
(0.014674 0 0)
(0.0169314 0 0)
(0.0191889 0 0)
(0.0214463 0 0)
(0.0237037 0 0)
(0.025961 0 0)
(0.0282184 0 0)
(0.0304756 0 0)
(0.0327329 0 0)
(0.03499 0 0)
(0.0372472 0 0)
(0.0395042 0 0)
(0.0417612 0 0)
(0.0440182 0 0)
(0.0462751 0 0)
(0.0485319 0 0)
(0.0507886 0 0)
(0.0530453 0 0)
(0.0553019 0 0)
(0.0575584 0 0)
(0.0598148 0 0)
(0.0620711 0 0)
(0.0643274 0 0)
(0.0665835 0 0)
(0.0688395 0 0)
(0.0710955 0 0)
(0.0733513 0 0)
(0.075607 0 0)
(0.0778626 0 0)
(0.0801181 0 0)
(0.0823734 0 0)
(0.0846287 0 0)
(0.0868838 0 0)
(0.0891388 0 0)
(0.0913936 0 0)
(0.0936483 0 0)
(0.0959029 0 0)
(0.0981573 0 0)
(0.100412 0 0)
(0.102666 0 0)
(0.10492 0 0)
(0.107173 0 0)
(0.109427 0 0)
(0.111681 0 0)
(0.113934 0 0)
(0.116187 0 0)
(0.11844 0 0)
(0.120693 0 0)
(0.122945 0 0)
(0.125198 0 0)
(0.12745 0 0)
(0.129702 0 0)
(0.131954 0 0)
(0.134206 0 0)
(0.136457 0 0)
(0.138708 0 0)
(0.140959 0 0)
(0.14321 0 0)
(0.145461 0 0)
(0.147711 0 0)
(0.149961 0 0)
(0.152211 0 0)
(0.154461 0 0)
(0.15671 0 0)
(0.158959 0 0)
(0.161208 0 0)
(0.163457 0 0)
(0.165705 0 0)
(0.167953 0 0)
(0.170201 0 0)
(0.172449 0 0)
(0.174696 0 0)
(0.176943 0 0)
(0.17919 0 0)
(0.181437 0 0)
(0.183683 0 0)
(0.185929 0 0)
(0.188175 0 0)
(0.19042 0 0)
(0.192665 0 0)
(0.19491 0 0)
(0.197155 0 0)
(0.199399 0 0)
(0.201643 0 0)
(0.203887 0 0)
(0.20613 0 0)
(0.208373 0 0)
(0.210615 0 0)
(0.212858 0 0)
(0.2151 0 0)
(0.217341 0 0)
(0.219583 0 0)
(0.221823 0 0)
(0.224064 0 0)
(0.226304 0 0)
(0.228544 0 0)
(0.230784 0 0)
(0.233023 0 0)
(0.235262 0 0)
(0.2375 0 0)
(0.239738 0 0)
(0.241976 0 0)
(0.244213 0 0)
(0.24645 0 0)
(0.248686 0 0)
(0.250922 0 0)
(0.253158 0 0)
(0.255393 0 0)
(0.257628 0 0)
(0.259863 0 0)
(0.262097 0 0)
(0.26433 0 0)
(0.266563 0 0)
(0.268796 0 0)
(0.271028 0 0)
(0.27326 0 0)
(0.275492 0 0)
(0.277723 0 0)
(0.279953 0 0)
(0.282183 0 0)
(0.284413 0 0)
(0.286642 0 0)
(0.288871 0 0)
(0.291099 0 0)
(0.293327 0 0)
(0.295554 0 0)
(0.297781 0 0)
(0.300007 0 0)
(0.302233 0 0)
(0.304458 0 0)
(0.306683 0 0)
(0.308907 0 0)
(0.311131 0 0)
(0.313354 0 0)
(0.315577 0 0)
(0.317799 0 0)
(0.320021 0 0)
(0.322242 0 0)
(0.324462 0 0)
(0.326682 0 0)
(0.328902 0 0)
(0.331121 0 0)
(0.333339 0 0)
(0.335557 0 0)
(0.337774 0 0)
(0.339991 0 0)
(0.342207 0 0)
(0.344422 0 0)
(0.346637 0 0)
(0.348851 0 0)
(0.351065 0 0)
(0.353278 0 0)
(0.355491 0 0)
(0.357703 0 0)
(0.359914 0 0)
(0.362125 0 0)
(0.364335 0 0)
(0.366544 0 0)
(0.368753 0 0)
(0.370961 0 0)
(0.373168 0 0)
(0.375375 0 0)
(0.377581 0 0)
(0.379787 0 0)
(0.381992 0 0)
(0.384196 0 0)
(0.386399 0 0)
(0.388602 0 0)
(0.390804 0 0)
(0.393006 0 0)
(0.395206 0 0)
(0.397406 0 0)
(0.399606 0 0)
(0.401804 0 0)
(0.404002 0 0)
(0.406199 0 0)
(0.408396 0 0)
(0.410591 0 0)
(0.412786 0 0)
(0.41498 0 0)
(0.417174 0 0)
(0.419366 0 0)
(0.421558 0 0)
(0.423749 0 0)
(0.42594 0 0)
(0.428129 0 0)
(0.430318 0 0)
(0.432506 0 0)
(0.434693 0 0)
(0.43688 0 0)
(0.439065 0 0)
(0.44125 0 0)
(0.443434 0 0)
(0.445617 0 0)
(0.447799 0 0)
(0.44998 0 0)
(0.452161 0 0)
(0.45434 0 0)
(0.456519 0 0)
(0.458697 0 0)
(0.460874 0 0)
(0.46305 0 0)
(0.465226 0 0)
(0.4674 0 0)
(0.469574 0 0)
(0.471746 0 0)
(0.473918 0 0)
(0.476089 0 0)
(0.478258 0 0)
(0.480427 0 0)
(0.482595 0 0)
(0.484762 0 0)
(0.486928 0 0)
(0.489093 0 0)
(0.491257 0 0)
(0.49342 0 0)
(0.495582 0 0)
(0.497744 0 0)
(0.499904 0 0)
(0.502063 0 0)
(0.504221 0 0)
(0.506378 0 0)
(0.508534 0 0)
(0.510689 0 0)
(0.512843 0 0)
(0.514996 0 0)
(0.517148 0 0)
(0.519299 0 0)
(0.521448 0 0)
(0.523597 0 0)
(0.525745 0 0)
(0.527891 0 0)
(0.530036 0 0)
(0.532181 0 0)
(0.534324 0 0)
(0.536466 0 0)
(0.538607 0 0)
(0.540746 0 0)
(0.542885 0 0)
(0.545022 0 0)
(0.547158 0 0)
(0.549293 0 0)
(0.551427 0 0)
(0.55356 0 0)
(0.555691 0 0)
(0.557822 0 0)
(0.559951 0 0)
(0.562078 0 0)
(0.564205 0 0)
(0.56633 0 0)
(0.568454 0 0)
(0.570577 0 0)
(0.572698 0 0)
(0.574819 0 0)
(0.576937 0 0)
(0.579055 0 0)
(0.581171 0 0)
(0.583286 0 0)
(0.5854 0 0)
(0.587512 0 0)
(0.589623 0 0)
(0.591732 0 0)
(0.59384 0 0)
(0.595947 0 0)
(0.598053 0 0)
(0.600156 0 0)
(0.602259 0 0)
(0.60436 0 0)
(0.60646 0 0)
(0.608558 0 0)
(0.610655 0 0)
(0.61275 0 0)
(0.614844 0 0)
(0.616936 0 0)
(0.619027 0 0)
(0.621116 0 0)
(0.623204 0 0)
(0.62529 0 0)
(0.627375 0 0)
(0.629458 0 0)
(0.631539 0 0)
(0.633619 0 0)
(0.635698 0 0)
(0.637774 0 0)
(0.639849 0 0)
(0.641923 0 0)
(0.643995 0 0)
(0.646065 0 0)
(0.648133 0 0)
(0.6502 0 0)
(0.652265 0 0)
(0.654328 0 0)
(0.65639 0 0)
(0.65845 0 0)
(0.660508 0 0)
(0.662564 0 0)
(0.664619 0 0)
(0.666672 0 0)
(0.668723 0 0)
(0.670772 0 0)
(0.672819 0 0)
(0.674865 0 0)
(0.676908 0 0)
(0.67895 0 0)
(0.68099 0 0)
(0.683028 0 0)
(0.685064 0 0)
(0.687098 0 0)
(0.68913 0 0)
(0.69116 0 0)
(0.693188 0 0)
(0.695214 0 0)
(0.697238 0 0)
(0.69926 0 0)
(0.70128 0 0)
(0.703298 0 0)
(0.705313 0 0)
(0.707327 0 0)
(0.709339 0 0)
(0.711348 0 0)
(0.713355 0 0)
(0.71536 0 0)
(0.717363 0 0)
(0.719364 0 0)
(0.721362 0 0)
(0.723358 0 0)
(0.725352 0 0)
(0.727343 0 0)
(0.729333 0 0)
(0.731319 0 0)
(0.733304 0 0)
(0.735286 0 0)
(0.737266 0 0)
(0.739243 0 0)
(0.741218 0 0)
(0.74319 0 0)
(0.74516 0 0)
(0.747128 0 0)
(0.749092 0 0)
(0.751055 0 0)
(0.753014 0 0)
(0.754972 0 0)
(0.756926 0 0)
(0.758878 0 0)
(0.760827 0 0)
(0.762774 0 0)
(0.764717 0 0)
(0.766659 0 0)
(0.768597 0 0)
(0.770532 0 0)
(0.772465 0 0)
(0.774395 0 0)
(0.776322 0 0)
(0.778246 0 0)
(0.780167 0 0)
(0.782085 0 0)
(0.784 0 0)
(0.785912 0 0)
(0.787821 0 0)
(0.789727 0 0)
(0.79163 0 0)
(0.79353 0 0)
(0.795426 0 0)
(0.79732 0 0)
(0.79921 0 0)
(0.801097 0 0)
(0.80298 0 0)
(0.80486 0 0)
(0.806737 0 0)
(0.808611 0 0)
(0.810481 0 0)
(0.812347 0 0)
(0.81421 0 0)
(0.81607 0 0)
(0.817926 0 0)
(0.819778 0 0)
(0.821627 0 0)
(0.823472 0 0)
(0.825313 0 0)
(0.82715 0 0)
(0.828984 0 0)
(0.830814 0 0)
(0.83264 0 0)
(0.834462 0 0)
(0.83628 0 0)
(0.838093 0 0)
(0.839903 0 0)
(0.841709 0 0)
(0.843511 0 0)
(0.845308 0 0)
(0.847091 0 0)
(0.849219 0 0)
(0.838265 0 0)
(0.455704 0 0)
(-0.454438 0 0)
(-0.838131 0 0)
(-0.84922 0 0)
(-0.847089 0 0)
(-0.845306 0 0)
(-0.843508 0 0)
(-0.841707 0 0)
(-0.839901 0 0)
(-0.838091 0 0)
(-0.836277 0 0)
(-0.834459 0 0)
(-0.832637 0 0)
(-0.830811 0 0)
(-0.828982 0 0)
(-0.827148 0 0)
(-0.825311 0 0)
(-0.823469 0 0)
(-0.821624 0 0)
(-0.819776 0 0)
(-0.817923 0 0)
(-0.816068 0 0)
(-0.814208 0 0)
(-0.812345 0 0)
(-0.810478 0 0)
(-0.808608 0 0)
(-0.806735 0 0)
(-0.804858 0 0)
(-0.802978 0 0)
(-0.801094 0 0)
(-0.799207 0 0)
(-0.797317 0 0)
(-0.795424 0 0)
(-0.793527 0 0)
(-0.791628 0 0)
(-0.789725 0 0)
(-0.787819 0 0)
(-0.78591 0 0)
(-0.783997 0 0)
(-0.782082 0 0)
(-0.780164 0 0)
(-0.778243 0 0)
(-0.776319 0 0)
(-0.774392 0 0)
(-0.772462 0 0)
(-0.77053 0 0)
(-0.768594 0 0)
(-0.766656 0 0)
(-0.764715 0 0)
(-0.762771 0 0)
(-0.760825 0 0)
(-0.758876 0 0)
(-0.756924 0 0)
(-0.754969 0 0)
(-0.753012 0 0)
(-0.751052 0 0)
(-0.74909 0 0)
(-0.747125 0 0)
(-0.745158 0 0)
(-0.743188 0 0)
(-0.741216 0 0)
(-0.739241 0 0)
(-0.737263 0 0)
(-0.735284 0 0)
(-0.733302 0 0)
(-0.731317 0 0)
(-0.72933 0 0)
(-0.727341 0 0)
(-0.725349 0 0)
(-0.723356 0 0)
(-0.72136 0 0)
(-0.719361 0 0)
(-0.717361 0 0)
(-0.715358 0 0)
(-0.713353 0 0)
(-0.711346 0 0)
(-0.709336 0 0)
(-0.707325 0 0)
(-0.705311 0 0)
(-0.703295 0 0)
(-0.701278 0 0)
(-0.699258 0 0)
(-0.697236 0 0)
(-0.695212 0 0)
(-0.693186 0 0)
(-0.691157 0 0)
(-0.689127 0 0)
(-0.687095 0 0)
(-0.685061 0 0)
(-0.683025 0 0)
(-0.680988 0 0)
(-0.678948 0 0)
(-0.676906 0 0)
(-0.674863 0 0)
(-0.672817 0 0)
(-0.67077 0 0)
(-0.668721 0 0)
(-0.66667 0 0)
(-0.664617 0 0)
(-0.662562 0 0)
(-0.660506 0 0)
(-0.658448 0 0)
(-0.656388 0 0)
(-0.654326 0 0)
(-0.652263 0 0)
(-0.650198 0 0)
(-0.648131 0 0)
(-0.646063 0 0)
(-0.643993 0 0)
(-0.641921 0 0)
(-0.639847 0 0)
(-0.637772 0 0)
(-0.635696 0 0)
(-0.633617 0 0)
(-0.631537 0 0)
(-0.629456 0 0)
(-0.627373 0 0)
(-0.625288 0 0)
(-0.623202 0 0)
(-0.621114 0 0)
(-0.619025 0 0)
(-0.616934 0 0)
(-0.614842 0 0)
(-0.612748 0 0)
(-0.610653 0 0)
(-0.608556 0 0)
(-0.606458 0 0)
(-0.604358 0 0)
(-0.602257 0 0)
(-0.600155 0 0)
(-0.598051 0 0)
(-0.595945 0 0)
(-0.593839 0 0)
(-0.591731 0 0)
(-0.589621 0 0)
(-0.58751 0 0)
(-0.585398 0 0)
(-0.583284 0 0)
(-0.581169 0 0)
(-0.579053 0 0)
(-0.576936 0 0)
(-0.574817 0 0)
(-0.572697 0 0)
(-0.570575 0 0)
(-0.568452 0 0)
(-0.566328 0 0)
(-0.564203 0 0)
(-0.562077 0 0)
(-0.559949 0 0)
(-0.55782 0 0)
(-0.55569 0 0)
(-0.553558 0 0)
(-0.551426 0 0)
(-0.549292 0 0)
(-0.547157 0 0)
(-0.545021 0 0)
(-0.542883 0 0)
(-0.540745 0 0)
(-0.538605 0 0)
(-0.536464 0 0)
(-0.534322 0 0)
(-0.532179 0 0)
(-0.530035 0 0)
(-0.52789 0 0)
(-0.525743 0 0)
(-0.523596 0 0)
(-0.521447 0 0)
(-0.519297 0 0)
(-0.517146 0 0)
(-0.514995 0 0)
(-0.512842 0 0)
(-0.510688 0 0)
(-0.508533 0 0)
(-0.506377 0 0)
(-0.50422 0 0)
(-0.502061 0 0)
(-0.499902 0 0)
(-0.497742 0 0)
(-0.495581 0 0)
(-0.493419 0 0)
(-0.491256 0 0)
(-0.489092 0 0)
(-0.486927 0 0)
(-0.484761 0 0)
(-0.482594 0 0)
(-0.480426 0 0)
(-0.478257 0 0)
(-0.476087 0 0)
(-0.473917 0 0)
(-0.471745 0 0)
(-0.469572 0 0)
(-0.467399 0 0)
(-0.465224 0 0)
(-0.463049 0 0)
(-0.460873 0 0)
(-0.458696 0 0)
(-0.456518 0 0)
(-0.454339 0 0)
(-0.45216 0 0)
(-0.449979 0 0)
(-0.447798 0 0)
(-0.445616 0 0)
(-0.443433 0 0)
(-0.441249 0 0)
(-0.439064 0 0)
(-0.436878 0 0)
(-0.434692 0 0)
(-0.432505 0 0)
(-0.430317 0 0)
(-0.428128 0 0)
(-0.425939 0 0)
(-0.423748 0 0)
(-0.421557 0 0)
(-0.419365 0 0)
(-0.417173 0 0)
(-0.414979 0 0)
(-0.412785 0 0)
(-0.41059 0 0)
(-0.408395 0 0)
(-0.406198 0 0)
(-0.404001 0 0)
(-0.401803 0 0)
(-0.399605 0 0)
(-0.397406 0 0)
(-0.395206 0 0)
(-0.393005 0 0)
(-0.390803 0 0)
(-0.388601 0 0)
(-0.386399 0 0)
(-0.384195 0 0)
(-0.381991 0 0)
(-0.379786 0 0)
(-0.377581 0 0)
(-0.375374 0 0)
(-0.373168 0 0)
(-0.37096 0 0)
(-0.368752 0 0)
(-0.366543 0 0)
(-0.364334 0 0)
(-0.362124 0 0)
(-0.359913 0 0)
(-0.357702 0 0)
(-0.35549 0 0)
(-0.353278 0 0)
(-0.351064 0 0)
(-0.348851 0 0)
(-0.346636 0 0)
(-0.344422 0 0)
(-0.342206 0 0)
(-0.33999 0 0)
(-0.337773 0 0)
(-0.335556 0 0)
(-0.333338 0 0)
(-0.33112 0 0)
(-0.328901 0 0)
(-0.326682 0 0)
(-0.324462 0 0)
(-0.322241 0 0)
(-0.32002 0 0)
(-0.317798 0 0)
(-0.315576 0 0)
(-0.313353 0 0)
(-0.31113 0 0)
(-0.308906 0 0)
(-0.306682 0 0)
(-0.304457 0 0)
(-0.302232 0 0)
(-0.300006 0 0)
(-0.29778 0 0)
(-0.295553 0 0)
(-0.293326 0 0)
(-0.291098 0 0)
(-0.28887 0 0)
(-0.286642 0 0)
(-0.284412 0 0)
(-0.282183 0 0)
(-0.279953 0 0)
(-0.277722 0 0)
(-0.275491 0 0)
(-0.27326 0 0)
(-0.271028 0 0)
(-0.268796 0 0)
(-0.266563 0 0)
(-0.26433 0 0)
(-0.262096 0 0)
(-0.259862 0 0)
(-0.257628 0 0)
(-0.255393 0 0)
(-0.253158 0 0)
(-0.250922 0 0)
(-0.248686 0 0)
(-0.246449 0 0)
(-0.244213 0 0)
(-0.241975 0 0)
(-0.239738 0 0)
(-0.2375 0 0)
(-0.235261 0 0)
(-0.233022 0 0)
(-0.230783 0 0)
(-0.228544 0 0)
(-0.226304 0 0)
(-0.224064 0 0)
(-0.221823 0 0)
(-0.219582 0 0)
(-0.217341 0 0)
(-0.215099 0 0)
(-0.212857 0 0)
(-0.210615 0 0)
(-0.208372 0 0)
(-0.20613 0 0)
(-0.203886 0 0)
(-0.201643 0 0)
(-0.199399 0 0)
(-0.197155 0 0)
(-0.19491 0 0)
(-0.192665 0 0)
(-0.19042 0 0)
(-0.188175 0 0)
(-0.185929 0 0)
(-0.183683 0 0)
(-0.181437 0 0)
(-0.17919 0 0)
(-0.176943 0 0)
(-0.174696 0 0)
(-0.172449 0 0)
(-0.170201 0 0)
(-0.167953 0 0)
(-0.165705 0 0)
(-0.163457 0 0)
(-0.161208 0 0)
(-0.158959 0 0)
(-0.15671 0 0)
(-0.15446 0 0)
(-0.152211 0 0)
(-0.149961 0 0)
(-0.147711 0 0)
(-0.14546 0 0)
(-0.14321 0 0)
(-0.140959 0 0)
(-0.138708 0 0)
(-0.136457 0 0)
(-0.134205 0 0)
(-0.131954 0 0)
(-0.129702 0 0)
(-0.12745 0 0)
(-0.125198 0 0)
(-0.122945 0 0)
(-0.120693 0 0)
(-0.11844 0 0)
(-0.116187 0 0)
(-0.113934 0 0)
(-0.111681 0 0)
(-0.109427 0 0)
(-0.107173 0 0)
(-0.10492 0 0)
(-0.102666 0 0)
(-0.100412 0 0)
(-0.0981572 0 0)
(-0.0959028 0 0)
(-0.0936483 0 0)
(-0.0913936 0 0)
(-0.0891387 0 0)
(-0.0868837 0 0)
(-0.0846286 0 0)
(-0.0823734 0 0)
(-0.080118 0 0)
(-0.0778626 0 0)
(-0.075607 0 0)
(-0.0733512 0 0)
(-0.0710954 0 0)
(-0.0688395 0 0)
(-0.0665835 0 0)
(-0.0643273 0 0)
(-0.0620711 0 0)
(-0.0598148 0 0)
(-0.0575584 0 0)
(-0.0553019 0 0)
(-0.0530453 0 0)
(-0.0507886 0 0)
(-0.0485319 0 0)
(-0.0462751 0 0)
(-0.0440182 0 0)
(-0.0417612 0 0)
(-0.0395042 0 0)
(-0.0372472 0 0)
(-0.03499 0 0)
(-0.0327329 0 0)
(-0.0304756 0 0)
(-0.0282184 0 0)
(-0.0259611 0 0)
(-0.0237037 0 0)
(-0.0214463 0 0)
(-0.0191889 0 0)
(-0.0169314 0 0)
(-0.014674 0 0)
(-0.0124165 0 0)
(-0.010159 0 0)
(-0.00790143 0 0)
(-0.00564388 0 0)
(-0.00338633 0 0)
(-0.00112878 0 0)
)
;

boundaryField
{
    left
    {
        type            fixedValue;
        value           uniform (0 0 0);
    }
    right
    {
        type            fixedValue;
        value           uniform (0 0 0);
    }
    frontBackUpDown
    {
        type            empty;
    }
}


// ************************************************************************* //
