/*--------------------------------*- C++ -*----------------------------------*\
| =========                 |                                                 |
| \\      /  F ield         | OpenFOAM: The Open Source CFD Toolbox           |
|  \\    /   O peration     | Version:  2412                                  |
|   \\  /    A nd           | Website:  www.openfoam.com                      |
|    \\/     M anipulation  |                                                 |
\*---------------------------------------------------------------------------*/
FoamFile
{
    version     2.0;
    format      ascii;
    arch        "LSB;label=32;scalar=64";
    class       volVectorField;
    location    "0.79";
    object      U_0;
}
// * * * * * * * * * * * * * * * * * * * * * * * * * * * * * * * * * * * * * //

dimensions      [0 1 -1 0 0 0 0];

internalField   nonuniform List<vector> 
800
(
(0.00112928 0 0)
(0.00338785 0 0)
(0.00564642 0 0)
(0.00790498 0 0)
(0.0101635 0 0)
(0.0124221 0 0)
(0.0146806 0 0)
(0.0169391 0 0)
(0.0191975 0 0)
(0.021456 0 0)
(0.0237144 0 0)
(0.0259728 0 0)
(0.0282311 0 0)
(0.0304894 0 0)
(0.0327476 0 0)
(0.0350058 0 0)
(0.037264 0 0)
(0.039522 0 0)
(0.0417801 0 0)
(0.044038 0 0)
(0.0462959 0 0)
(0.0485538 0 0)
(0.0508115 0 0)
(0.0530692 0 0)
(0.0553268 0 0)
(0.0575843 0 0)
(0.0598417 0 0)
(0.0620991 0 0)
(0.0643563 0 0)
(0.0666135 0 0)
(0.0688705 0 0)
(0.0711275 0 0)
(0.0733843 0 0)
(0.075641 0 0)
(0.0778977 0 0)
(0.0801542 0 0)
(0.0824105 0 0)
(0.0846668 0 0)
(0.0869229 0 0)
(0.0891789 0 0)
(0.0914348 0 0)
(0.0936905 0 0)
(0.0959461 0 0)
(0.0982015 0 0)
(0.100457 0 0)
(0.102712 0 0)
(0.104967 0 0)
(0.107222 0 0)
(0.109476 0 0)
(0.111731 0 0)
(0.113985 0 0)
(0.116239 0 0)
(0.118493 0 0)
(0.120747 0 0)
(0.123001 0 0)
(0.125254 0 0)
(0.127507 0 0)
(0.12976 0 0)
(0.132013 0 0)
(0.134266 0 0)
(0.136518 0 0)
(0.13877 0 0)
(0.141022 0 0)
(0.143274 0 0)
(0.145526 0 0)
(0.147777 0 0)
(0.150028 0 0)
(0.152279 0 0)
(0.15453 0 0)
(0.15678 0 0)
(0.15903 0 0)
(0.16128 0 0)
(0.16353 0 0)
(0.16578 0 0)
(0.168029 0 0)
(0.170278 0 0)
(0.172526 0 0)
(0.174775 0 0)
(0.177023 0 0)
(0.179271 0 0)
(0.181518 0 0)
(0.183766 0 0)
(0.186013 0 0)
(0.188259 0 0)
(0.190506 0 0)
(0.192752 0 0)
(0.194998 0 0)
(0.197243 0 0)
(0.199488 0 0)
(0.201733 0 0)
(0.203978 0 0)
(0.206222 0 0)
(0.208466 0 0)
(0.21071 0 0)
(0.212953 0 0)
(0.215196 0 0)
(0.217439 0 0)
(0.219681 0 0)
(0.221923 0 0)
(0.224164 0 0)
(0.226405 0 0)
(0.228646 0 0)
(0.230887 0 0)
(0.233127 0 0)
(0.235367 0 0)
(0.237606 0 0)
(0.239845 0 0)
(0.242084 0 0)
(0.244322 0 0)
(0.24656 0 0)
(0.248797 0 0)
(0.251034 0 0)
(0.253271 0 0)
(0.255507 0 0)
(0.257743 0 0)
(0.259978 0 0)
(0.262213 0 0)
(0.264448 0 0)
(0.266682 0 0)
(0.268916 0 0)
(0.271149 0 0)
(0.273382 0 0)
(0.275614 0 0)
(0.277846 0 0)
(0.280078 0 0)
(0.282309 0 0)
(0.28454 0 0)
(0.28677 0 0)
(0.288999 0 0)
(0.291228 0 0)
(0.293457 0 0)
(0.295685 0 0)
(0.297913 0 0)
(0.30014 0 0)
(0.302367 0 0)
(0.304593 0 0)
(0.306819 0 0)
(0.309044 0 0)
(0.311269 0 0)
(0.313493 0 0)
(0.315717 0 0)
(0.31794 0 0)
(0.320162 0 0)
(0.322385 0 0)
(0.324606 0 0)
(0.326827 0 0)
(0.329047 0 0)
(0.331267 0 0)
(0.333487 0 0)
(0.335705 0 0)
(0.337924 0 0)
(0.340141 0 0)
(0.342358 0 0)
(0.344575 0 0)
(0.34679 0 0)
(0.349006 0 0)
(0.35122 0 0)
(0.353434 0 0)
(0.355648 0 0)
(0.357861 0 0)
(0.360073 0 0)
(0.362285 0 0)
(0.364495 0 0)
(0.366706 0 0)
(0.368915 0 0)
(0.371125 0 0)
(0.373333 0 0)
(0.375541 0 0)
(0.377748 0 0)
(0.379954 0 0)
(0.38216 0 0)
(0.384365 0 0)
(0.386569 0 0)
(0.388773 0 0)
(0.390976 0 0)
(0.393178 0 0)
(0.39538 0 0)
(0.397581 0 0)
(0.399781 0 0)
(0.401981 0 0)
(0.404179 0 0)
(0.406377 0 0)
(0.408575 0 0)
(0.410771 0 0)
(0.412967 0 0)
(0.415162 0 0)
(0.417357 0 0)
(0.41955 0 0)
(0.421743 0 0)
(0.423935 0 0)
(0.426126 0 0)
(0.428317 0 0)
(0.430506 0 0)
(0.432695 0 0)
(0.434883 0 0)
(0.43707 0 0)
(0.439257 0 0)
(0.441442 0 0)
(0.443627 0 0)
(0.445811 0 0)
(0.447994 0 0)
(0.450176 0 0)
(0.452358 0 0)
(0.454538 0 0)
(0.456718 0 0)
(0.458897 0 0)
(0.461075 0 0)
(0.463252 0 0)
(0.465428 0 0)
(0.467603 0 0)
(0.469777 0 0)
(0.471951 0 0)
(0.474123 0 0)
(0.476295 0 0)
(0.478466 0 0)
(0.480635 0 0)
(0.482804 0 0)
(0.484972 0 0)
(0.487139 0 0)
(0.489305 0 0)
(0.49147 0 0)
(0.493633 0 0)
(0.495796 0 0)
(0.497958 0 0)
(0.500119 0 0)
(0.502279 0 0)
(0.504438 0 0)
(0.506596 0 0)
(0.508753 0 0)
(0.510909 0 0)
(0.513064 0 0)
(0.515217 0 0)
(0.51737 0 0)
(0.519522 0 0)
(0.521672 0 0)
(0.523822 0 0)
(0.52597 0 0)
(0.528117 0 0)
(0.530263 0 0)
(0.532409 0 0)
(0.534552 0 0)
(0.536695 0 0)
(0.538837 0 0)
(0.540977 0 0)
(0.543117 0 0)
(0.545255 0 0)
(0.547392 0 0)
(0.549528 0 0)
(0.551662 0 0)
(0.553796 0 0)
(0.555928 0 0)
(0.558059 0 0)
(0.560189 0 0)
(0.562317 0 0)
(0.564444 0 0)
(0.56657 0 0)
(0.568695 0 0)
(0.570819 0 0)
(0.572941 0 0)
(0.575062 0 0)
(0.577181 0 0)
(0.5793 0 0)
(0.581417 0 0)
(0.583532 0 0)
(0.585647 0 0)
(0.58776 0 0)
(0.589871 0 0)
(0.591982 0 0)
(0.59409 0 0)
(0.596198 0 0)
(0.598304 0 0)
(0.600409 0 0)
(0.602512 0 0)
(0.604614 0 0)
(0.606714 0 0)
(0.608813 0 0)
(0.61091 0 0)
(0.613006 0 0)
(0.615101 0 0)
(0.617194 0 0)
(0.619285 0 0)
(0.621375 0 0)
(0.623464 0 0)
(0.625551 0 0)
(0.627636 0 0)
(0.62972 0 0)
(0.631802 0 0)
(0.633882 0 0)
(0.635961 0 0)
(0.638039 0 0)
(0.640114 0 0)
(0.642189 0 0)
(0.644261 0 0)
(0.646332 0 0)
(0.648401 0 0)
(0.650468 0 0)
(0.652534 0 0)
(0.654598 0 0)
(0.65666 0 0)
(0.658721 0 0)
(0.66078 0 0)
(0.662836 0 0)
(0.664892 0 0)
(0.666945 0 0)
(0.668997 0 0)
(0.671046 0 0)
(0.673094 0 0)
(0.67514 0 0)
(0.677184 0 0)
(0.679227 0 0)
(0.681267 0 0)
(0.683306 0 0)
(0.685342 0 0)
(0.687377 0 0)
(0.689409 0 0)
(0.69144 0 0)
(0.693468 0 0)
(0.695495 0 0)
(0.69752 0 0)
(0.699542 0 0)
(0.701563 0 0)
(0.703581 0 0)
(0.705597 0 0)
(0.707611 0 0)
(0.709623 0 0)
(0.711633 0 0)
(0.713641 0 0)
(0.715647 0 0)
(0.71765 0 0)
(0.719651 0 0)
(0.72165 0 0)
(0.723646 0 0)
(0.725641 0 0)
(0.727633 0 0)
(0.729622 0 0)
(0.73161 0 0)
(0.733594 0 0)
(0.735577 0 0)
(0.737557 0 0)
(0.739535 0 0)
(0.74151 0 0)
(0.743483 0 0)
(0.745453 0 0)
(0.747421 0 0)
(0.749386 0 0)
(0.751349 0 0)
(0.753309 0 0)
(0.755267 0 0)
(0.757222 0 0)
(0.759174 0 0)
(0.761123 0 0)
(0.76307 0 0)
(0.765014 0 0)
(0.766956 0 0)
(0.768894 0 0)
(0.77083 0 0)
(0.772763 0 0)
(0.774693 0 0)
(0.77662 0 0)
(0.778545 0 0)
(0.780466 0 0)
(0.782384 0 0)
(0.7843 0 0)
(0.786212 0 0)
(0.788121 0 0)
(0.790028 0 0)
(0.791931 0 0)
(0.793831 0 0)
(0.795727 0 0)
(0.797621 0 0)
(0.799511 0 0)
(0.801398 0 0)
(0.803282 0 0)
(0.805163 0 0)
(0.80704 0 0)
(0.808913 0 0)
(0.810783 0 0)
(0.81265 0 0)
(0.814513 0 0)
(0.816373 0 0)
(0.818229 0 0)
(0.820081 0 0)
(0.82193 0 0)
(0.823775 0 0)
(0.825616 0 0)
(0.827454 0 0)
(0.829288 0 0)
(0.831117 0 0)
(0.832943 0 0)
(0.834765 0 0)
(0.836583 0 0)
(0.838397 0 0)
(0.840207 0 0)
(0.842012 0 0)
(0.843814 0 0)
(0.845611 0 0)
(0.847394 0 0)
(0.849521 0 0)
(0.838655 0 0)
(0.456028 0 0)
(-0.454762 0 0)
(-0.838522 0 0)
(-0.849523 0 0)
(-0.847392 0 0)
(-0.845609 0 0)
(-0.843811 0 0)
(-0.84201 0 0)
(-0.840204 0 0)
(-0.838395 0 0)
(-0.836581 0 0)
(-0.834763 0 0)
(-0.832941 0 0)
(-0.831115 0 0)
(-0.829285 0 0)
(-0.827451 0 0)
(-0.825614 0 0)
(-0.823773 0 0)
(-0.821928 0 0)
(-0.820079 0 0)
(-0.818227 0 0)
(-0.81637 0 0)
(-0.814511 0 0)
(-0.812648 0 0)
(-0.810781 0 0)
(-0.808911 0 0)
(-0.807037 0 0)
(-0.80516 0 0)
(-0.80328 0 0)
(-0.801396 0 0)
(-0.799509 0 0)
(-0.797619 0 0)
(-0.795725 0 0)
(-0.793828 0 0)
(-0.791928 0 0)
(-0.790025 0 0)
(-0.788119 0 0)
(-0.78621 0 0)
(-0.784297 0 0)
(-0.782382 0 0)
(-0.780464 0 0)
(-0.778542 0 0)
(-0.776618 0 0)
(-0.774691 0 0)
(-0.772761 0 0)
(-0.770828 0 0)
(-0.768892 0 0)
(-0.766953 0 0)
(-0.765012 0 0)
(-0.763068 0 0)
(-0.761121 0 0)
(-0.759171 0 0)
(-0.757219 0 0)
(-0.755264 0 0)
(-0.753307 0 0)
(-0.751347 0 0)
(-0.749384 0 0)
(-0.747419 0 0)
(-0.745451 0 0)
(-0.743481 0 0)
(-0.741508 0 0)
(-0.739533 0 0)
(-0.737555 0 0)
(-0.735575 0 0)
(-0.733592 0 0)
(-0.731607 0 0)
(-0.72962 0 0)
(-0.72763 0 0)
(-0.725638 0 0)
(-0.723644 0 0)
(-0.721647 0 0)
(-0.719649 0 0)
(-0.717648 0 0)
(-0.715644 0 0)
(-0.713639 0 0)
(-0.711631 0 0)
(-0.709621 0 0)
(-0.707609 0 0)
(-0.705595 0 0)
(-0.703579 0 0)
(-0.70156 0 0)
(-0.69954 0 0)
(-0.697517 0 0)
(-0.695493 0 0)
(-0.693466 0 0)
(-0.691438 0 0)
(-0.689407 0 0)
(-0.687374 0 0)
(-0.68534 0 0)
(-0.683303 0 0)
(-0.681265 0 0)
(-0.679225 0 0)
(-0.677182 0 0)
(-0.675138 0 0)
(-0.673092 0 0)
(-0.671044 0 0)
(-0.668995 0 0)
(-0.666943 0 0)
(-0.66489 0 0)
(-0.662834 0 0)
(-0.660777 0 0)
(-0.658719 0 0)
(-0.656658 0 0)
(-0.654596 0 0)
(-0.652532 0 0)
(-0.650466 0 0)
(-0.648399 0 0)
(-0.64633 0 0)
(-0.644259 0 0)
(-0.642187 0 0)
(-0.640112 0 0)
(-0.638037 0 0)
(-0.635959 0 0)
(-0.63388 0 0)
(-0.6318 0 0)
(-0.629718 0 0)
(-0.627634 0 0)
(-0.625549 0 0)
(-0.623462 0 0)
(-0.621373 0 0)
(-0.619283 0 0)
(-0.617192 0 0)
(-0.615099 0 0)
(-0.613004 0 0)
(-0.610908 0 0)
(-0.608811 0 0)
(-0.606712 0 0)
(-0.604612 0 0)
(-0.60251 0 0)
(-0.600407 0 0)
(-0.598302 0 0)
(-0.596196 0 0)
(-0.594089 0 0)
(-0.59198 0 0)
(-0.58987 0 0)
(-0.587758 0 0)
(-0.585645 0 0)
(-0.583531 0 0)
(-0.581415 0 0)
(-0.579298 0 0)
(-0.57718 0 0)
(-0.57506 0 0)
(-0.572939 0 0)
(-0.570817 0 0)
(-0.568694 0 0)
(-0.566569 0 0)
(-0.564443 0 0)
(-0.562315 0 0)
(-0.560187 0 0)
(-0.558057 0 0)
(-0.555926 0 0)
(-0.553794 0 0)
(-0.551661 0 0)
(-0.549526 0 0)
(-0.54739 0 0)
(-0.545253 0 0)
(-0.543115 0 0)
(-0.540976 0 0)
(-0.538835 0 0)
(-0.536694 0 0)
(-0.534551 0 0)
(-0.532407 0 0)
(-0.530262 0 0)
(-0.528116 0 0)
(-0.525969 0 0)
(-0.52382 0 0)
(-0.521671 0 0)
(-0.51952 0 0)
(-0.517369 0 0)
(-0.515216 0 0)
(-0.513062 0 0)
(-0.510907 0 0)
(-0.508752 0 0)
(-0.506595 0 0)
(-0.504437 0 0)
(-0.502278 0 0)
(-0.500118 0 0)
(-0.497957 0 0)
(-0.495795 0 0)
(-0.493632 0 0)
(-0.491468 0 0)
(-0.489303 0 0)
(-0.487137 0 0)
(-0.484971 0 0)
(-0.482803 0 0)
(-0.480634 0 0)
(-0.478464 0 0)
(-0.476294 0 0)
(-0.474122 0 0)
(-0.47195 0 0)
(-0.469776 0 0)
(-0.467602 0 0)
(-0.465427 0 0)
(-0.46325 0 0)
(-0.461073 0 0)
(-0.458896 0 0)
(-0.456717 0 0)
(-0.454537 0 0)
(-0.452357 0 0)
(-0.450175 0 0)
(-0.447993 0 0)
(-0.44581 0 0)
(-0.443626 0 0)
(-0.441441 0 0)
(-0.439256 0 0)
(-0.437069 0 0)
(-0.434882 0 0)
(-0.432694 0 0)
(-0.430505 0 0)
(-0.428315 0 0)
(-0.426125 0 0)
(-0.423934 0 0)
(-0.421742 0 0)
(-0.419549 0 0)
(-0.417356 0 0)
(-0.415161 0 0)
(-0.412966 0 0)
(-0.41077 0 0)
(-0.408574 0 0)
(-0.406377 0 0)
(-0.404179 0 0)
(-0.40198 0 0)
(-0.39978 0 0)
(-0.39758 0 0)
(-0.395379 0 0)
(-0.393178 0 0)
(-0.390975 0 0)
(-0.388772 0 0)
(-0.386569 0 0)
(-0.384364 0 0)
(-0.382159 0 0)
(-0.379953 0 0)
(-0.377747 0 0)
(-0.37554 0 0)
(-0.373332 0 0)
(-0.371124 0 0)
(-0.368915 0 0)
(-0.366705 0 0)
(-0.364495 0 0)
(-0.362284 0 0)
(-0.360072 0 0)
(-0.35786 0 0)
(-0.355647 0 0)
(-0.353434 0 0)
(-0.35122 0 0)
(-0.349005 0 0)
(-0.34679 0 0)
(-0.344574 0 0)
(-0.342357 0 0)
(-0.34014 0 0)
(-0.337923 0 0)
(-0.335705 0 0)
(-0.333486 0 0)
(-0.331267 0 0)
(-0.329047 0 0)
(-0.326826 0 0)
(-0.324605 0 0)
(-0.322384 0 0)
(-0.320162 0 0)
(-0.317939 0 0)
(-0.315716 0 0)
(-0.313492 0 0)
(-0.311268 0 0)
(-0.309044 0 0)
(-0.306818 0 0)
(-0.304593 0 0)
(-0.302366 0 0)
(-0.30014 0 0)
(-0.297913 0 0)
(-0.295685 0 0)
(-0.293457 0 0)
(-0.291228 0 0)
(-0.288999 0 0)
(-0.286769 0 0)
(-0.284539 0 0)
(-0.282308 0 0)
(-0.280077 0 0)
(-0.277846 0 0)
(-0.275614 0 0)
(-0.273382 0 0)
(-0.271149 0 0)
(-0.268915 0 0)
(-0.266682 0 0)
(-0.264448 0 0)
(-0.262213 0 0)
(-0.259978 0 0)
(-0.257743 0 0)
(-0.255507 0 0)
(-0.253271 0 0)
(-0.251034 0 0)
(-0.248797 0 0)
(-0.246559 0 0)
(-0.244322 0 0)
(-0.242083 0 0)
(-0.239845 0 0)
(-0.237606 0 0)
(-0.235366 0 0)
(-0.233127 0 0)
(-0.230886 0 0)
(-0.228646 0 0)
(-0.226405 0 0)
(-0.224164 0 0)
(-0.221922 0 0)
(-0.21968 0 0)
(-0.217438 0 0)
(-0.215196 0 0)
(-0.212953 0 0)
(-0.210709 0 0)
(-0.208466 0 0)
(-0.206222 0 0)
(-0.203978 0 0)
(-0.201733 0 0)
(-0.199488 0 0)
(-0.197243 0 0)
(-0.194997 0 0)
(-0.192752 0 0)
(-0.190505 0 0)
(-0.188259 0 0)
(-0.186012 0 0)
(-0.183765 0 0)
(-0.181518 0 0)
(-0.17927 0 0)
(-0.177023 0 0)
(-0.174775 0 0)
(-0.172526 0 0)
(-0.170277 0 0)
(-0.168029 0 0)
(-0.165779 0 0)
(-0.16353 0 0)
(-0.16128 0 0)
(-0.15903 0 0)
(-0.15678 0 0)
(-0.15453 0 0)
(-0.152279 0 0)
(-0.150028 0 0)
(-0.147777 0 0)
(-0.145526 0 0)
(-0.143274 0 0)
(-0.141022 0 0)
(-0.13877 0 0)
(-0.136518 0 0)
(-0.134266 0 0)
(-0.132013 0 0)
(-0.12976 0 0)
(-0.127507 0 0)
(-0.125254 0 0)
(-0.123001 0 0)
(-0.120747 0 0)
(-0.118493 0 0)
(-0.116239 0 0)
(-0.113985 0 0)
(-0.111731 0 0)
(-0.109476 0 0)
(-0.107222 0 0)
(-0.104967 0 0)
(-0.102712 0 0)
(-0.100457 0 0)
(-0.0982014 0 0)
(-0.095946 0 0)
(-0.0936904 0 0)
(-0.0914347 0 0)
(-0.0891789 0 0)
(-0.0869229 0 0)
(-0.0846667 0 0)
(-0.0824105 0 0)
(-0.0801541 0 0)
(-0.0778976 0 0)
(-0.075641 0 0)
(-0.0733843 0 0)
(-0.0711274 0 0)
(-0.0688705 0 0)
(-0.0666135 0 0)
(-0.0643563 0 0)
(-0.0620991 0 0)
(-0.0598417 0 0)
(-0.0575843 0 0)
(-0.0553268 0 0)
(-0.0530692 0 0)
(-0.0508115 0 0)
(-0.0485537 0 0)
(-0.0462959 0 0)
(-0.044038 0 0)
(-0.0417801 0 0)
(-0.039522 0 0)
(-0.0372639 0 0)
(-0.0350058 0 0)
(-0.0327476 0 0)
(-0.0304894 0 0)
(-0.0282311 0 0)
(-0.0259728 0 0)
(-0.0237144 0 0)
(-0.021456 0 0)
(-0.0191975 0 0)
(-0.0169391 0 0)
(-0.0146806 0 0)
(-0.0124221 0 0)
(-0.0101635 0 0)
(-0.00790499 0 0)
(-0.00564643 0 0)
(-0.00338786 0 0)
(-0.00112929 0 0)
)
;

boundaryField
{
    left
    {
        type            fixedValue;
        value           uniform (0 0 0);
    }
    right
    {
        type            fixedValue;
        value           uniform (0 0 0);
    }
    frontBackUpDown
    {
        type            empty;
    }
}


// ************************************************************************* //
