/*--------------------------------*- C++ -*----------------------------------*\
| =========                 |                                                 |
| \\      /  F ield         | OpenFOAM: The Open Source CFD Toolbox           |
|  \\    /   O peration     | Version:  2412                                  |
|   \\  /    A nd           | Website:  www.openfoam.com                      |
|    \\/     M anipulation  |                                                 |
\*---------------------------------------------------------------------------*/
FoamFile
{
    version     2.0;
    format      ascii;
    arch        "LSB;label=32;scalar=64";
    class       volVectorField;
    location    "0.79";
    object      U_0_0_0;
}
// * * * * * * * * * * * * * * * * * * * * * * * * * * * * * * * * * * * * * //

dimensions      [0 1 -1 0 0 0 0];

internalField   nonuniform List<vector> 
800
(
(0.0011303 0 0)
(0.00339091 0 0)
(0.00565151 0 0)
(0.00791211 0 0)
(0.0101727 0 0)
(0.0124333 0 0)
(0.0146938 0 0)
(0.0169544 0 0)
(0.0192149 0 0)
(0.0214753 0 0)
(0.0237358 0 0)
(0.0259962 0 0)
(0.0282566 0 0)
(0.0305169 0 0)
(0.0327772 0 0)
(0.0350374 0 0)
(0.0372976 0 0)
(0.0395577 0 0)
(0.0418178 0 0)
(0.0440778 0 0)
(0.0463377 0 0)
(0.0485976 0 0)
(0.0508573 0 0)
(0.0531171 0 0)
(0.0553767 0 0)
(0.0576362 0 0)
(0.0598957 0 0)
(0.0621551 0 0)
(0.0644144 0 0)
(0.0666736 0 0)
(0.0689326 0 0)
(0.0711916 0 0)
(0.0734505 0 0)
(0.0757092 0 0)
(0.0779679 0 0)
(0.0802264 0 0)
(0.0824848 0 0)
(0.0847431 0 0)
(0.0870013 0 0)
(0.0892593 0 0)
(0.0915172 0 0)
(0.0937749 0 0)
(0.0960325 0 0)
(0.09829 0 0)
(0.100547 0 0)
(0.102804 0 0)
(0.105061 0 0)
(0.107318 0 0)
(0.109575 0 0)
(0.111831 0 0)
(0.114088 0 0)
(0.116344 0 0)
(0.1186 0 0)
(0.120856 0 0)
(0.123111 0 0)
(0.125367 0 0)
(0.127622 0 0)
(0.129877 0 0)
(0.132132 0 0)
(0.134387 0 0)
(0.136641 0 0)
(0.138895 0 0)
(0.141149 0 0)
(0.143403 0 0)
(0.145657 0 0)
(0.14791 0 0)
(0.150163 0 0)
(0.152416 0 0)
(0.154669 0 0)
(0.156921 0 0)
(0.159173 0 0)
(0.161425 0 0)
(0.163677 0 0)
(0.165929 0 0)
(0.16818 0 0)
(0.170431 0 0)
(0.172681 0 0)
(0.174932 0 0)
(0.177182 0 0)
(0.179432 0 0)
(0.181681 0 0)
(0.183931 0 0)
(0.18618 0 0)
(0.188428 0 0)
(0.190677 0 0)
(0.192925 0 0)
(0.195173 0 0)
(0.19742 0 0)
(0.199667 0 0)
(0.201914 0 0)
(0.204161 0 0)
(0.206407 0 0)
(0.208653 0 0)
(0.210899 0 0)
(0.213144 0 0)
(0.215389 0 0)
(0.217633 0 0)
(0.219878 0 0)
(0.222121 0 0)
(0.224365 0 0)
(0.226608 0 0)
(0.228851 0 0)
(0.231093 0 0)
(0.233336 0 0)
(0.235577 0 0)
(0.237819 0 0)
(0.24006 0 0)
(0.2423 0 0)
(0.24454 0 0)
(0.24678 0 0)
(0.24902 0 0)
(0.251259 0 0)
(0.253497 0 0)
(0.255735 0 0)
(0.257973 0 0)
(0.260211 0 0)
(0.262448 0 0)
(0.264684 0 0)
(0.26692 0 0)
(0.269156 0 0)
(0.271391 0 0)
(0.273626 0 0)
(0.27586 0 0)
(0.278094 0 0)
(0.280328 0 0)
(0.282561 0 0)
(0.284793 0 0)
(0.287025 0 0)
(0.289257 0 0)
(0.291488 0 0)
(0.293718 0 0)
(0.295949 0 0)
(0.298178 0 0)
(0.300407 0 0)
(0.302636 0 0)
(0.304864 0 0)
(0.307092 0 0)
(0.309319 0 0)
(0.311546 0 0)
(0.313772 0 0)
(0.315997 0 0)
(0.318222 0 0)
(0.320447 0 0)
(0.322671 0 0)
(0.324894 0 0)
(0.327117 0 0)
(0.329339 0 0)
(0.331561 0 0)
(0.333782 0 0)
(0.336003 0 0)
(0.338223 0 0)
(0.340443 0 0)
(0.342661 0 0)
(0.34488 0 0)
(0.347097 0 0)
(0.349315 0 0)
(0.351531 0 0)
(0.353747 0 0)
(0.355962 0 0)
(0.358177 0 0)
(0.360391 0 0)
(0.362605 0 0)
(0.364817 0 0)
(0.36703 0 0)
(0.369241 0 0)
(0.371452 0 0)
(0.373662 0 0)
(0.375872 0 0)
(0.378081 0 0)
(0.380289 0 0)
(0.382497 0 0)
(0.384704 0 0)
(0.38691 0 0)
(0.389115 0 0)
(0.39132 0 0)
(0.393524 0 0)
(0.395728 0 0)
(0.397931 0 0)
(0.400133 0 0)
(0.402334 0 0)
(0.404534 0 0)
(0.406734 0 0)
(0.408933 0 0)
(0.411132 0 0)
(0.413329 0 0)
(0.415526 0 0)
(0.417722 0 0)
(0.419918 0 0)
(0.422112 0 0)
(0.424306 0 0)
(0.426499 0 0)
(0.428691 0 0)
(0.430883 0 0)
(0.433073 0 0)
(0.435263 0 0)
(0.437452 0 0)
(0.43964 0 0)
(0.441828 0 0)
(0.444014 0 0)
(0.4462 0 0)
(0.448385 0 0)
(0.450569 0 0)
(0.452752 0 0)
(0.454934 0 0)
(0.457116 0 0)
(0.459296 0 0)
(0.461476 0 0)
(0.463655 0 0)
(0.465832 0 0)
(0.468009 0 0)
(0.470185 0 0)
(0.472361 0 0)
(0.474535 0 0)
(0.476708 0 0)
(0.47888 0 0)
(0.481052 0 0)
(0.483222 0 0)
(0.485392 0 0)
(0.48756 0 0)
(0.489728 0 0)
(0.491895 0 0)
(0.49406 0 0)
(0.496225 0 0)
(0.498388 0 0)
(0.500551 0 0)
(0.502713 0 0)
(0.504873 0 0)
(0.507033 0 0)
(0.509191 0 0)
(0.511349 0 0)
(0.513505 0 0)
(0.515661 0 0)
(0.517815 0 0)
(0.519968 0 0)
(0.52212 0 0)
(0.524272 0 0)
(0.526422 0 0)
(0.52857 0 0)
(0.530718 0 0)
(0.532865 0 0)
(0.53501 0 0)
(0.537155 0 0)
(0.539298 0 0)
(0.54144 0 0)
(0.543581 0 0)
(0.545721 0 0)
(0.547859 0 0)
(0.549997 0 0)
(0.552133 0 0)
(0.554268 0 0)
(0.556401 0 0)
(0.558534 0 0)
(0.560665 0 0)
(0.562795 0 0)
(0.564924 0 0)
(0.567052 0 0)
(0.569178 0 0)
(0.571303 0 0)
(0.573427 0 0)
(0.575549 0 0)
(0.57767 0 0)
(0.57979 0 0)
(0.581909 0 0)
(0.584026 0 0)
(0.586141 0 0)
(0.588256 0 0)
(0.590369 0 0)
(0.592481 0 0)
(0.594591 0 0)
(0.5967 0 0)
(0.598807 0 0)
(0.600913 0 0)
(0.603018 0 0)
(0.605121 0 0)
(0.607223 0 0)
(0.609323 0 0)
(0.611422 0 0)
(0.61352 0 0)
(0.615616 0 0)
(0.61771 0 0)
(0.619803 0 0)
(0.621894 0 0)
(0.623984 0 0)
(0.626072 0 0)
(0.628159 0 0)
(0.630244 0 0)
(0.632327 0 0)
(0.634409 0 0)
(0.63649 0 0)
(0.638568 0 0)
(0.640645 0 0)
(0.642721 0 0)
(0.644794 0 0)
(0.646867 0 0)
(0.648937 0 0)
(0.651006 0 0)
(0.653073 0 0)
(0.655138 0 0)
(0.657201 0 0)
(0.659263 0 0)
(0.661323 0 0)
(0.663381 0 0)
(0.665438 0 0)
(0.667492 0 0)
(0.669545 0 0)
(0.671596 0 0)
(0.673645 0 0)
(0.675692 0 0)
(0.677738 0 0)
(0.679781 0 0)
(0.681822 0 0)
(0.683862 0 0)
(0.6859 0 0)
(0.687935 0 0)
(0.689969 0 0)
(0.692001 0 0)
(0.694031 0 0)
(0.696058 0 0)
(0.698084 0 0)
(0.700107 0 0)
(0.702129 0 0)
(0.704148 0 0)
(0.706166 0 0)
(0.708181 0 0)
(0.710194 0 0)
(0.712205 0 0)
(0.714213 0 0)
(0.71622 0 0)
(0.718224 0 0)
(0.720226 0 0)
(0.722226 0 0)
(0.724223 0 0)
(0.726219 0 0)
(0.728212 0 0)
(0.730202 0 0)
(0.73219 0 0)
(0.734176 0 0)
(0.73616 0 0)
(0.738141 0 0)
(0.740119 0 0)
(0.742095 0 0)
(0.744069 0 0)
(0.74604 0 0)
(0.748009 0 0)
(0.749975 0 0)
(0.751938 0 0)
(0.753899 0 0)
(0.755857 0 0)
(0.757813 0 0)
(0.759766 0 0)
(0.761716 0 0)
(0.763664 0 0)
(0.765608 0 0)
(0.76755 0 0)
(0.76949 0 0)
(0.771426 0 0)
(0.77336 0 0)
(0.77529 0 0)
(0.777218 0 0)
(0.779143 0 0)
(0.781065 0 0)
(0.782984 0 0)
(0.7849 0 0)
(0.786813 0 0)
(0.788722 0 0)
(0.790629 0 0)
(0.792533 0 0)
(0.794433 0 0)
(0.79633 0 0)
(0.798224 0 0)
(0.800115 0 0)
(0.802002 0 0)
(0.803887 0 0)
(0.805767 0 0)
(0.807645 0 0)
(0.809519 0 0)
(0.811389 0 0)
(0.813256 0 0)
(0.815119 0 0)
(0.816979 0 0)
(0.818836 0 0)
(0.820688 0 0)
(0.822537 0 0)
(0.824382 0 0)
(0.826224 0 0)
(0.828061 0 0)
(0.829895 0 0)
(0.831725 0 0)
(0.833551 0 0)
(0.835373 0 0)
(0.83719 0 0)
(0.839004 0 0)
(0.840814 0 0)
(0.84262 0 0)
(0.844421 0 0)
(0.846218 0 0)
(0.848001 0 0)
(0.850127 0 0)
(0.839437 0 0)
(0.456676 0 0)
(-0.455409 0 0)
(-0.839304 0 0)
(-0.850129 0 0)
(-0.847998 0 0)
(-0.846216 0 0)
(-0.844419 0 0)
(-0.842617 0 0)
(-0.840812 0 0)
(-0.839002 0 0)
(-0.837188 0 0)
(-0.83537 0 0)
(-0.833548 0 0)
(-0.831722 0 0)
(-0.829892 0 0)
(-0.828059 0 0)
(-0.826221 0 0)
(-0.82438 0 0)
(-0.822535 0 0)
(-0.820686 0 0)
(-0.818833 0 0)
(-0.816977 0 0)
(-0.815117 0 0)
(-0.813254 0 0)
(-0.811387 0 0)
(-0.809516 0 0)
(-0.807642 0 0)
(-0.805765 0 0)
(-0.803884 0 0)
(-0.802 0 0)
(-0.800113 0 0)
(-0.798222 0 0)
(-0.796328 0 0)
(-0.794431 0 0)
(-0.79253 0 0)
(-0.790627 0 0)
(-0.78872 0 0)
(-0.78681 0 0)
(-0.784897 0 0)
(-0.782981 0 0)
(-0.781063 0 0)
(-0.779141 0 0)
(-0.777216 0 0)
(-0.775288 0 0)
(-0.773357 0 0)
(-0.771424 0 0)
(-0.769487 0 0)
(-0.767548 0 0)
(-0.765606 0 0)
(-0.763661 0 0)
(-0.761714 0 0)
(-0.759763 0 0)
(-0.757811 0 0)
(-0.755855 0 0)
(-0.753897 0 0)
(-0.751936 0 0)
(-0.749972 0 0)
(-0.748006 0 0)
(-0.746038 0 0)
(-0.744067 0 0)
(-0.742093 0 0)
(-0.740117 0 0)
(-0.738138 0 0)
(-0.736157 0 0)
(-0.734174 0 0)
(-0.732188 0 0)
(-0.7302 0 0)
(-0.728209 0 0)
(-0.726216 0 0)
(-0.724221 0 0)
(-0.722224 0 0)
(-0.720224 0 0)
(-0.718222 0 0)
(-0.716218 0 0)
(-0.714211 0 0)
(-0.712202 0 0)
(-0.710192 0 0)
(-0.708179 0 0)
(-0.706163 0 0)
(-0.704146 0 0)
(-0.702127 0 0)
(-0.700105 0 0)
(-0.698082 0 0)
(-0.696056 0 0)
(-0.694028 0 0)
(-0.691999 0 0)
(-0.689967 0 0)
(-0.687933 0 0)
(-0.685897 0 0)
(-0.68386 0 0)
(-0.68182 0 0)
(-0.679779 0 0)
(-0.677735 0 0)
(-0.67569 0 0)
(-0.673643 0 0)
(-0.671594 0 0)
(-0.669543 0 0)
(-0.66749 0 0)
(-0.665435 0 0)
(-0.663379 0 0)
(-0.661321 0 0)
(-0.659261 0 0)
(-0.657199 0 0)
(-0.655136 0 0)
(-0.65307 0 0)
(-0.651004 0 0)
(-0.648935 0 0)
(-0.646864 0 0)
(-0.644792 0 0)
(-0.642719 0 0)
(-0.640643 0 0)
(-0.638566 0 0)
(-0.636488 0 0)
(-0.634407 0 0)
(-0.632325 0 0)
(-0.630242 0 0)
(-0.628157 0 0)
(-0.62607 0 0)
(-0.623982 0 0)
(-0.621892 0 0)
(-0.619801 0 0)
(-0.617708 0 0)
(-0.615614 0 0)
(-0.613518 0 0)
(-0.61142 0 0)
(-0.609322 0 0)
(-0.607221 0 0)
(-0.60512 0 0)
(-0.603016 0 0)
(-0.600912 0 0)
(-0.598806 0 0)
(-0.596698 0 0)
(-0.594589 0 0)
(-0.592479 0 0)
(-0.590367 0 0)
(-0.588254 0 0)
(-0.58614 0 0)
(-0.584024 0 0)
(-0.581907 0 0)
(-0.579788 0 0)
(-0.577669 0 0)
(-0.575547 0 0)
(-0.573425 0 0)
(-0.571301 0 0)
(-0.569176 0 0)
(-0.56705 0 0)
(-0.564922 0 0)
(-0.562794 0 0)
(-0.560664 0 0)
(-0.558532 0 0)
(-0.5564 0 0)
(-0.554266 0 0)
(-0.552131 0 0)
(-0.549995 0 0)
(-0.547858 0 0)
(-0.545719 0 0)
(-0.543579 0 0)
(-0.541438 0 0)
(-0.539296 0 0)
(-0.537153 0 0)
(-0.535009 0 0)
(-0.532863 0 0)
(-0.530717 0 0)
(-0.528569 0 0)
(-0.52642 0 0)
(-0.52427 0 0)
(-0.522119 0 0)
(-0.519967 0 0)
(-0.517814 0 0)
(-0.515659 0 0)
(-0.513504 0 0)
(-0.511347 0 0)
(-0.50919 0 0)
(-0.507031 0 0)
(-0.504872 0 0)
(-0.502711 0 0)
(-0.50055 0 0)
(-0.498387 0 0)
(-0.496224 0 0)
(-0.494059 0 0)
(-0.491893 0 0)
(-0.489727 0 0)
(-0.487559 0 0)
(-0.485391 0 0)
(-0.483221 0 0)
(-0.481051 0 0)
(-0.478879 0 0)
(-0.476707 0 0)
(-0.474534 0 0)
(-0.472359 0 0)
(-0.470184 0 0)
(-0.468008 0 0)
(-0.465831 0 0)
(-0.463653 0 0)
(-0.461475 0 0)
(-0.459295 0 0)
(-0.457114 0 0)
(-0.454933 0 0)
(-0.452751 0 0)
(-0.450568 0 0)
(-0.448384 0 0)
(-0.446199 0 0)
(-0.444013 0 0)
(-0.441827 0 0)
(-0.439639 0 0)
(-0.437451 0 0)
(-0.435262 0 0)
(-0.433072 0 0)
(-0.430882 0 0)
(-0.42869 0 0)
(-0.426498 0 0)
(-0.424305 0 0)
(-0.422111 0 0)
(-0.419917 0 0)
(-0.417721 0 0)
(-0.415525 0 0)
(-0.413328 0 0)
(-0.411131 0 0)
(-0.408932 0 0)
(-0.406733 0 0)
(-0.404534 0 0)
(-0.402333 0 0)
(-0.400132 0 0)
(-0.39793 0 0)
(-0.395727 0 0)
(-0.393524 0 0)
(-0.391319 0 0)
(-0.389115 0 0)
(-0.386909 0 0)
(-0.384703 0 0)
(-0.382496 0 0)
(-0.380288 0 0)
(-0.37808 0 0)
(-0.375871 0 0)
(-0.373662 0 0)
(-0.371451 0 0)
(-0.36924 0 0)
(-0.367029 0 0)
(-0.364817 0 0)
(-0.362604 0 0)
(-0.36039 0 0)
(-0.358176 0 0)
(-0.355962 0 0)
(-0.353746 0 0)
(-0.35153 0 0)
(-0.349314 0 0)
(-0.347097 0 0)
(-0.344879 0 0)
(-0.342661 0 0)
(-0.340442 0 0)
(-0.338222 0 0)
(-0.336002 0 0)
(-0.333782 0 0)
(-0.33156 0 0)
(-0.329339 0 0)
(-0.327116 0 0)
(-0.324894 0 0)
(-0.32267 0 0)
(-0.320446 0 0)
(-0.318222 0 0)
(-0.315997 0 0)
(-0.313771 0 0)
(-0.311545 0 0)
(-0.309318 0 0)
(-0.307091 0 0)
(-0.304864 0 0)
(-0.302635 0 0)
(-0.300407 0 0)
(-0.298178 0 0)
(-0.295948 0 0)
(-0.293718 0 0)
(-0.291487 0 0)
(-0.289256 0 0)
(-0.287025 0 0)
(-0.284793 0 0)
(-0.28256 0 0)
(-0.280327 0 0)
(-0.278094 0 0)
(-0.27586 0 0)
(-0.273625 0 0)
(-0.271391 0 0)
(-0.269155 0 0)
(-0.26692 0 0)
(-0.264684 0 0)
(-0.262447 0 0)
(-0.26021 0 0)
(-0.257973 0 0)
(-0.255735 0 0)
(-0.253497 0 0)
(-0.251258 0 0)
(-0.249019 0 0)
(-0.24678 0 0)
(-0.24454 0 0)
(-0.2423 0 0)
(-0.240059 0 0)
(-0.237818 0 0)
(-0.235577 0 0)
(-0.233335 0 0)
(-0.231093 0 0)
(-0.228851 0 0)
(-0.226608 0 0)
(-0.224365 0 0)
(-0.222121 0 0)
(-0.219877 0 0)
(-0.217633 0 0)
(-0.215388 0 0)
(-0.213144 0 0)
(-0.210898 0 0)
(-0.208653 0 0)
(-0.206407 0 0)
(-0.20416 0 0)
(-0.201914 0 0)
(-0.199667 0 0)
(-0.19742 0 0)
(-0.195172 0 0)
(-0.192925 0 0)
(-0.190676 0 0)
(-0.188428 0 0)
(-0.186179 0 0)
(-0.18393 0 0)
(-0.181681 0 0)
(-0.179431 0 0)
(-0.177182 0 0)
(-0.174932 0 0)
(-0.172681 0 0)
(-0.17043 0 0)
(-0.16818 0 0)
(-0.165928 0 0)
(-0.163677 0 0)
(-0.161425 0 0)
(-0.159173 0 0)
(-0.156921 0 0)
(-0.154669 0 0)
(-0.152416 0 0)
(-0.150163 0 0)
(-0.14791 0 0)
(-0.145657 0 0)
(-0.143403 0 0)
(-0.141149 0 0)
(-0.138895 0 0)
(-0.136641 0 0)
(-0.134387 0 0)
(-0.132132 0 0)
(-0.129877 0 0)
(-0.127622 0 0)
(-0.125367 0 0)
(-0.123111 0 0)
(-0.120856 0 0)
(-0.1186 0 0)
(-0.116344 0 0)
(-0.114088 0 0)
(-0.111831 0 0)
(-0.109575 0 0)
(-0.107318 0 0)
(-0.105061 0 0)
(-0.102804 0 0)
(-0.100547 0 0)
(-0.0982899 0 0)
(-0.0960325 0 0)
(-0.0937749 0 0)
(-0.0915171 0 0)
(-0.0892592 0 0)
(-0.0870012 0 0)
(-0.0847431 0 0)
(-0.0824848 0 0)
(-0.0802264 0 0)
(-0.0779678 0 0)
(-0.0757092 0 0)
(-0.0734504 0 0)
(-0.0711916 0 0)
(-0.0689326 0 0)
(-0.0666735 0 0)
(-0.0644143 0 0)
(-0.0621551 0 0)
(-0.0598957 0 0)
(-0.0576362 0 0)
(-0.0553767 0 0)
(-0.053117 0 0)
(-0.0508573 0 0)
(-0.0485975 0 0)
(-0.0463377 0 0)
(-0.0440777 0 0)
(-0.0418178 0 0)
(-0.0395577 0 0)
(-0.0372976 0 0)
(-0.0350374 0 0)
(-0.0327772 0 0)
(-0.0305169 0 0)
(-0.0282566 0 0)
(-0.0259962 0 0)
(-0.0237358 0 0)
(-0.0214753 0 0)
(-0.0192149 0 0)
(-0.0169544 0 0)
(-0.0146938 0 0)
(-0.0124333 0 0)
(-0.0101727 0 0)
(-0.00791212 0 0)
(-0.00565152 0 0)
(-0.00339092 0 0)
(-0.00113031 0 0)
)
;

boundaryField
{
    left
    {
        type            fixedValue;
        value           uniform (0 0 0);
    }
    right
    {
        type            fixedValue;
        value           uniform (0 0 0);
    }
    frontBackUpDown
    {
        type            empty;
    }
}


// ************************************************************************* //
