/*--------------------------------*- C++ -*----------------------------------*\
| =========                 |                                                 |
| \\      /  F ield         | OpenFOAM: The Open Source CFD Toolbox           |
|  \\    /   O peration     | Version:  2412                                  |
|   \\  /    A nd           | Website:  www.openfoam.com                      |
|    \\/     M anipulation  |                                                 |
\*---------------------------------------------------------------------------*/
FoamFile
{
    version     2.0;
    format      ascii;
    arch        "LSB;label=32;scalar=64";
    class       volVectorField;
    location    "0.79";
    object      U_0_0;
}
// * * * * * * * * * * * * * * * * * * * * * * * * * * * * * * * * * * * * * //

dimensions      [0 1 -1 0 0 0 0];

internalField   nonuniform List<vector> 
800
(
(0.00112979 0 0)
(0.00338938 0 0)
(0.00564896 0 0)
(0.00790854 0 0)
(0.0101681 0 0)
(0.0124277 0 0)
(0.0146872 0 0)
(0.0169467 0 0)
(0.0192062 0 0)
(0.0214656 0 0)
(0.0237251 0 0)
(0.0259845 0 0)
(0.0282438 0 0)
(0.0305031 0 0)
(0.0327624 0 0)
(0.0350216 0 0)
(0.0372808 0 0)
(0.0395399 0 0)
(0.0417989 0 0)
(0.0440579 0 0)
(0.0463168 0 0)
(0.0485756 0 0)
(0.0508344 0 0)
(0.0530931 0 0)
(0.0553517 0 0)
(0.0576103 0 0)
(0.0598687 0 0)
(0.0621271 0 0)
(0.0643853 0 0)
(0.0666435 0 0)
(0.0689016 0 0)
(0.0711595 0 0)
(0.0734174 0 0)
(0.0756751 0 0)
(0.0779328 0 0)
(0.0801903 0 0)
(0.0824477 0 0)
(0.0847049 0 0)
(0.0869621 0 0)
(0.0892191 0 0)
(0.0914759 0 0)
(0.0937327 0 0)
(0.0959893 0 0)
(0.0982457 0 0)
(0.100502 0 0)
(0.102758 0 0)
(0.105014 0 0)
(0.10727 0 0)
(0.109526 0 0)
(0.111781 0 0)
(0.114036 0 0)
(0.116292 0 0)
(0.118547 0 0)
(0.120801 0 0)
(0.123056 0 0)
(0.12531 0 0)
(0.127565 0 0)
(0.129819 0 0)
(0.132073 0 0)
(0.134326 0 0)
(0.13658 0 0)
(0.138833 0 0)
(0.141086 0 0)
(0.143339 0 0)
(0.145591 0 0)
(0.147844 0 0)
(0.150096 0 0)
(0.152348 0 0)
(0.154599 0 0)
(0.156851 0 0)
(0.159102 0 0)
(0.161353 0 0)
(0.163604 0 0)
(0.165854 0 0)
(0.168104 0 0)
(0.170354 0 0)
(0.172604 0 0)
(0.174853 0 0)
(0.177102 0 0)
(0.179351 0 0)
(0.1816 0 0)
(0.183848 0 0)
(0.186096 0 0)
(0.188344 0 0)
(0.190591 0 0)
(0.192838 0 0)
(0.195085 0 0)
(0.197332 0 0)
(0.199578 0 0)
(0.201824 0 0)
(0.204069 0 0)
(0.206315 0 0)
(0.208559 0 0)
(0.210804 0 0)
(0.213048 0 0)
(0.215292 0 0)
(0.217536 0 0)
(0.219779 0 0)
(0.222022 0 0)
(0.224265 0 0)
(0.226507 0 0)
(0.228749 0 0)
(0.23099 0 0)
(0.233231 0 0)
(0.235472 0 0)
(0.237712 0 0)
(0.239952 0 0)
(0.242192 0 0)
(0.244431 0 0)
(0.24667 0 0)
(0.248908 0 0)
(0.251146 0 0)
(0.253384 0 0)
(0.255621 0 0)
(0.257858 0 0)
(0.260095 0 0)
(0.26233 0 0)
(0.264566 0 0)
(0.266801 0 0)
(0.269036 0 0)
(0.27127 0 0)
(0.273504 0 0)
(0.275737 0 0)
(0.27797 0 0)
(0.280203 0 0)
(0.282435 0 0)
(0.284666 0 0)
(0.286897 0 0)
(0.289128 0 0)
(0.291358 0 0)
(0.293588 0 0)
(0.295817 0 0)
(0.298046 0 0)
(0.300274 0 0)
(0.302501 0 0)
(0.304729 0 0)
(0.306955 0 0)
(0.309181 0 0)
(0.311407 0 0)
(0.313632 0 0)
(0.315857 0 0)
(0.318081 0 0)
(0.320305 0 0)
(0.322528 0 0)
(0.32475 0 0)
(0.326972 0 0)
(0.329193 0 0)
(0.331414 0 0)
(0.333634 0 0)
(0.335854 0 0)
(0.338073 0 0)
(0.340292 0 0)
(0.34251 0 0)
(0.344727 0 0)
(0.346944 0 0)
(0.34916 0 0)
(0.351376 0 0)
(0.353591 0 0)
(0.355805 0 0)
(0.358019 0 0)
(0.360232 0 0)
(0.362444 0 0)
(0.364656 0 0)
(0.366868 0 0)
(0.369078 0 0)
(0.371288 0 0)
(0.373498 0 0)
(0.375706 0 0)
(0.377914 0 0)
(0.380122 0 0)
(0.382328 0 0)
(0.384534 0 0)
(0.38674 0 0)
(0.388944 0 0)
(0.391148 0 0)
(0.393351 0 0)
(0.395554 0 0)
(0.397756 0 0)
(0.399957 0 0)
(0.402157 0 0)
(0.404357 0 0)
(0.406556 0 0)
(0.408754 0 0)
(0.410952 0 0)
(0.413148 0 0)
(0.415344 0 0)
(0.417539 0 0)
(0.419734 0 0)
(0.421927 0 0)
(0.42412 0 0)
(0.426313 0 0)
(0.428504 0 0)
(0.430694 0 0)
(0.432884 0 0)
(0.435073 0 0)
(0.437261 0 0)
(0.439448 0 0)
(0.441635 0 0)
(0.443821 0 0)
(0.446005 0 0)
(0.448189 0 0)
(0.450372 0 0)
(0.452555 0 0)
(0.454736 0 0)
(0.456917 0 0)
(0.459096 0 0)
(0.461275 0 0)
(0.463453 0 0)
(0.46563 0 0)
(0.467806 0 0)
(0.469981 0 0)
(0.472156 0 0)
(0.474329 0 0)
(0.476501 0 0)
(0.478673 0 0)
(0.480843 0 0)
(0.483013 0 0)
(0.485182 0 0)
(0.487349 0 0)
(0.489516 0 0)
(0.491682 0 0)
(0.493847 0 0)
(0.496011 0 0)
(0.498173 0 0)
(0.500335 0 0)
(0.502496 0 0)
(0.504656 0 0)
(0.506814 0 0)
(0.508972 0 0)
(0.511129 0 0)
(0.513284 0 0)
(0.515439 0 0)
(0.517592 0 0)
(0.519745 0 0)
(0.521896 0 0)
(0.524047 0 0)
(0.526196 0 0)
(0.528344 0 0)
(0.530491 0 0)
(0.532637 0 0)
(0.534781 0 0)
(0.536925 0 0)
(0.539067 0 0)
(0.541209 0 0)
(0.543349 0 0)
(0.545488 0 0)
(0.547625 0 0)
(0.549762 0 0)
(0.551897 0 0)
(0.554032 0 0)
(0.556165 0 0)
(0.558296 0 0)
(0.560427 0 0)
(0.562556 0 0)
(0.564684 0 0)
(0.566811 0 0)
(0.568937 0 0)
(0.571061 0 0)
(0.573184 0 0)
(0.575305 0 0)
(0.577426 0 0)
(0.579545 0 0)
(0.581663 0 0)
(0.583779 0 0)
(0.585894 0 0)
(0.588008 0 0)
(0.59012 0 0)
(0.592231 0 0)
(0.594341 0 0)
(0.596449 0 0)
(0.598556 0 0)
(0.600661 0 0)
(0.602765 0 0)
(0.604867 0 0)
(0.606968 0 0)
(0.609068 0 0)
(0.611166 0 0)
(0.613263 0 0)
(0.615358 0 0)
(0.617452 0 0)
(0.619544 0 0)
(0.621635 0 0)
(0.623724 0 0)
(0.625811 0 0)
(0.627897 0 0)
(0.629982 0 0)
(0.632065 0 0)
(0.634146 0 0)
(0.636225 0 0)
(0.638303 0 0)
(0.64038 0 0)
(0.642455 0 0)
(0.644528 0 0)
(0.646599 0 0)
(0.648669 0 0)
(0.650737 0 0)
(0.652803 0 0)
(0.654868 0 0)
(0.656931 0 0)
(0.658992 0 0)
(0.661051 0 0)
(0.663109 0 0)
(0.665165 0 0)
(0.667219 0 0)
(0.669271 0 0)
(0.671321 0 0)
(0.67337 0 0)
(0.675416 0 0)
(0.677461 0 0)
(0.679504 0 0)
(0.681545 0 0)
(0.683584 0 0)
(0.685621 0 0)
(0.687656 0 0)
(0.689689 0 0)
(0.69172 0 0)
(0.693749 0 0)
(0.695777 0 0)
(0.697802 0 0)
(0.699825 0 0)
(0.701846 0 0)
(0.703865 0 0)
(0.705881 0 0)
(0.707896 0 0)
(0.709909 0 0)
(0.711919 0 0)
(0.713927 0 0)
(0.715933 0 0)
(0.717937 0 0)
(0.719938 0 0)
(0.721938 0 0)
(0.723935 0 0)
(0.72593 0 0)
(0.727922 0 0)
(0.729912 0 0)
(0.7319 0 0)
(0.733885 0 0)
(0.735868 0 0)
(0.737849 0 0)
(0.739827 0 0)
(0.741803 0 0)
(0.743776 0 0)
(0.745747 0 0)
(0.747715 0 0)
(0.74968 0 0)
(0.751644 0 0)
(0.753604 0 0)
(0.755562 0 0)
(0.757517 0 0)
(0.75947 0 0)
(0.76142 0 0)
(0.763367 0 0)
(0.765311 0 0)
(0.767253 0 0)
(0.769192 0 0)
(0.771128 0 0)
(0.773061 0 0)
(0.774992 0 0)
(0.776919 0 0)
(0.778844 0 0)
(0.780765 0 0)
(0.782684 0 0)
(0.7846 0 0)
(0.786512 0 0)
(0.788422 0 0)
(0.790328 0 0)
(0.792232 0 0)
(0.794132 0 0)
(0.796029 0 0)
(0.797923 0 0)
(0.799813 0 0)
(0.8017 0 0)
(0.803584 0 0)
(0.805465 0 0)
(0.807342 0 0)
(0.809216 0 0)
(0.811086 0 0)
(0.812953 0 0)
(0.814816 0 0)
(0.816676 0 0)
(0.818532 0 0)
(0.820385 0 0)
(0.822233 0 0)
(0.824079 0 0)
(0.82592 0 0)
(0.827757 0 0)
(0.829591 0 0)
(0.831421 0 0)
(0.833247 0 0)
(0.835069 0 0)
(0.836887 0 0)
(0.838701 0 0)
(0.84051 0 0)
(0.842316 0 0)
(0.844117 0 0)
(0.845915 0 0)
(0.847698 0 0)
(0.849824 0 0)
(0.839046 0 0)
(0.456352 0 0)
(-0.455085 0 0)
(-0.838913 0 0)
(-0.849826 0 0)
(-0.847695 0 0)
(-0.845912 0 0)
(-0.844115 0 0)
(-0.842314 0 0)
(-0.840508 0 0)
(-0.838698 0 0)
(-0.836884 0 0)
(-0.835066 0 0)
(-0.833244 0 0)
(-0.831419 0 0)
(-0.829589 0 0)
(-0.827755 0 0)
(-0.825918 0 0)
(-0.824076 0 0)
(-0.822231 0 0)
(-0.820382 0 0)
(-0.81853 0 0)
(-0.816674 0 0)
(-0.814814 0 0)
(-0.812951 0 0)
(-0.811084 0 0)
(-0.809213 0 0)
(-0.80734 0 0)
(-0.805462 0 0)
(-0.803582 0 0)
(-0.801698 0 0)
(-0.799811 0 0)
(-0.79792 0 0)
(-0.796026 0 0)
(-0.794129 0 0)
(-0.792229 0 0)
(-0.790326 0 0)
(-0.788419 0 0)
(-0.78651 0 0)
(-0.784597 0 0)
(-0.782682 0 0)
(-0.780763 0 0)
(-0.778841 0 0)
(-0.776917 0 0)
(-0.774989 0 0)
(-0.773059 0 0)
(-0.771126 0 0)
(-0.769189 0 0)
(-0.767251 0 0)
(-0.765309 0 0)
(-0.763364 0 0)
(-0.761417 0 0)
(-0.759467 0 0)
(-0.757515 0 0)
(-0.75556 0 0)
(-0.753602 0 0)
(-0.751641 0 0)
(-0.749678 0 0)
(-0.747712 0 0)
(-0.745744 0 0)
(-0.743773 0 0)
(-0.7418 0 0)
(-0.739825 0 0)
(-0.737846 0 0)
(-0.735866 0 0)
(-0.733883 0 0)
(-0.731898 0 0)
(-0.72991 0 0)
(-0.72792 0 0)
(-0.725927 0 0)
(-0.723932 0 0)
(-0.721935 0 0)
(-0.719936 0 0)
(-0.717935 0 0)
(-0.715931 0 0)
(-0.713925 0 0)
(-0.711917 0 0)
(-0.709906 0 0)
(-0.707894 0 0)
(-0.705879 0 0)
(-0.703862 0 0)
(-0.701843 0 0)
(-0.699822 0 0)
(-0.697799 0 0)
(-0.695774 0 0)
(-0.693747 0 0)
(-0.691718 0 0)
(-0.689687 0 0)
(-0.687654 0 0)
(-0.685619 0 0)
(-0.683582 0 0)
(-0.681543 0 0)
(-0.679502 0 0)
(-0.677459 0 0)
(-0.675414 0 0)
(-0.673367 0 0)
(-0.671319 0 0)
(-0.669269 0 0)
(-0.667216 0 0)
(-0.665162 0 0)
(-0.663107 0 0)
(-0.661049 0 0)
(-0.65899 0 0)
(-0.656929 0 0)
(-0.654866 0 0)
(-0.652801 0 0)
(-0.650735 0 0)
(-0.648667 0 0)
(-0.646597 0 0)
(-0.644526 0 0)
(-0.642453 0 0)
(-0.640378 0 0)
(-0.638301 0 0)
(-0.636223 0 0)
(-0.634144 0 0)
(-0.632063 0 0)
(-0.62998 0 0)
(-0.627895 0 0)
(-0.625809 0 0)
(-0.623722 0 0)
(-0.621633 0 0)
(-0.619542 0 0)
(-0.61745 0 0)
(-0.615356 0 0)
(-0.613261 0 0)
(-0.611164 0 0)
(-0.609066 0 0)
(-0.606967 0 0)
(-0.604866 0 0)
(-0.602763 0 0)
(-0.600659 0 0)
(-0.598554 0 0)
(-0.596447 0 0)
(-0.594339 0 0)
(-0.592229 0 0)
(-0.590118 0 0)
(-0.588006 0 0)
(-0.585892 0 0)
(-0.583777 0 0)
(-0.581661 0 0)
(-0.579543 0 0)
(-0.577424 0 0)
(-0.575304 0 0)
(-0.573182 0 0)
(-0.571059 0 0)
(-0.568935 0 0)
(-0.566809 0 0)
(-0.564683 0 0)
(-0.562554 0 0)
(-0.560425 0 0)
(-0.558295 0 0)
(-0.556163 0 0)
(-0.55403 0 0)
(-0.551896 0 0)
(-0.54976 0 0)
(-0.547624 0 0)
(-0.545486 0 0)
(-0.543347 0 0)
(-0.541207 0 0)
(-0.539066 0 0)
(-0.536923 0 0)
(-0.53478 0 0)
(-0.532635 0 0)
(-0.530489 0 0)
(-0.528342 0 0)
(-0.526194 0 0)
(-0.524045 0 0)
(-0.521895 0 0)
(-0.519743 0 0)
(-0.517591 0 0)
(-0.515438 0 0)
(-0.513283 0 0)
(-0.511127 0 0)
(-0.508971 0 0)
(-0.506813 0 0)
(-0.504654 0 0)
(-0.502495 0 0)
(-0.500334 0 0)
(-0.498172 0 0)
(-0.496009 0 0)
(-0.493845 0 0)
(-0.491681 0 0)
(-0.489515 0 0)
(-0.487348 0 0)
(-0.48518 0 0)
(-0.483012 0 0)
(-0.480842 0 0)
(-0.478672 0 0)
(-0.4765 0 0)
(-0.474328 0 0)
(-0.472154 0 0)
(-0.46998 0 0)
(-0.467805 0 0)
(-0.465629 0 0)
(-0.463452 0 0)
(-0.461274 0 0)
(-0.459095 0 0)
(-0.456915 0 0)
(-0.454735 0 0)
(-0.452554 0 0)
(-0.450371 0 0)
(-0.448188 0 0)
(-0.446004 0 0)
(-0.443819 0 0)
(-0.441634 0 0)
(-0.439447 0 0)
(-0.43726 0 0)
(-0.435072 0 0)
(-0.432883 0 0)
(-0.430693 0 0)
(-0.428503 0 0)
(-0.426311 0 0)
(-0.424119 0 0)
(-0.421926 0 0)
(-0.419733 0 0)
(-0.417538 0 0)
(-0.415343 0 0)
(-0.413147 0 0)
(-0.410951 0 0)
(-0.408753 0 0)
(-0.406555 0 0)
(-0.404356 0 0)
(-0.402156 0 0)
(-0.399956 0 0)
(-0.397755 0 0)
(-0.395553 0 0)
(-0.39335 0 0)
(-0.391147 0 0)
(-0.388943 0 0)
(-0.386739 0 0)
(-0.384533 0 0)
(-0.382327 0 0)
(-0.380121 0 0)
(-0.377913 0 0)
(-0.375705 0 0)
(-0.373497 0 0)
(-0.371287 0 0)
(-0.369077 0 0)
(-0.366867 0 0)
(-0.364656 0 0)
(-0.362444 0 0)
(-0.360231 0 0)
(-0.358018 0 0)
(-0.355804 0 0)
(-0.35359 0 0)
(-0.351375 0 0)
(-0.349159 0 0)
(-0.346943 0 0)
(-0.344726 0 0)
(-0.342509 0 0)
(-0.340291 0 0)
(-0.338073 0 0)
(-0.335853 0 0)
(-0.333634 0 0)
(-0.331414 0 0)
(-0.329193 0 0)
(-0.326971 0 0)
(-0.324749 0 0)
(-0.322527 0 0)
(-0.320304 0 0)
(-0.31808 0 0)
(-0.315856 0 0)
(-0.313632 0 0)
(-0.311407 0 0)
(-0.309181 0 0)
(-0.306955 0 0)
(-0.304728 0 0)
(-0.302501 0 0)
(-0.300273 0 0)
(-0.298045 0 0)
(-0.295816 0 0)
(-0.293587 0 0)
(-0.291358 0 0)
(-0.289127 0 0)
(-0.286897 0 0)
(-0.284666 0 0)
(-0.282434 0 0)
(-0.280202 0 0)
(-0.27797 0 0)
(-0.275737 0 0)
(-0.273503 0 0)
(-0.27127 0 0)
(-0.269035 0 0)
(-0.266801 0 0)
(-0.264566 0 0)
(-0.26233 0 0)
(-0.260094 0 0)
(-0.257858 0 0)
(-0.255621 0 0)
(-0.253384 0 0)
(-0.251146 0 0)
(-0.248908 0 0)
(-0.24667 0 0)
(-0.244431 0 0)
(-0.242192 0 0)
(-0.239952 0 0)
(-0.237712 0 0)
(-0.235472 0 0)
(-0.233231 0 0)
(-0.23099 0 0)
(-0.228748 0 0)
(-0.226506 0 0)
(-0.224264 0 0)
(-0.222022 0 0)
(-0.219779 0 0)
(-0.217536 0 0)
(-0.215292 0 0)
(-0.213048 0 0)
(-0.210804 0 0)
(-0.208559 0 0)
(-0.206314 0 0)
(-0.204069 0 0)
(-0.201823 0 0)
(-0.199578 0 0)
(-0.197331 0 0)
(-0.195085 0 0)
(-0.192838 0 0)
(-0.190591 0 0)
(-0.188343 0 0)
(-0.186096 0 0)
(-0.183848 0 0)
(-0.181599 0 0)
(-0.179351 0 0)
(-0.177102 0 0)
(-0.174853 0 0)
(-0.172604 0 0)
(-0.170354 0 0)
(-0.168104 0 0)
(-0.165854 0 0)
(-0.163603 0 0)
(-0.161353 0 0)
(-0.159102 0 0)
(-0.156851 0 0)
(-0.154599 0 0)
(-0.152348 0 0)
(-0.150096 0 0)
(-0.147843 0 0)
(-0.145591 0 0)
(-0.143339 0 0)
(-0.141086 0 0)
(-0.138833 0 0)
(-0.13658 0 0)
(-0.134326 0 0)
(-0.132072 0 0)
(-0.129819 0 0)
(-0.127565 0 0)
(-0.12531 0 0)
(-0.123056 0 0)
(-0.120801 0 0)
(-0.118547 0 0)
(-0.116292 0 0)
(-0.114036 0 0)
(-0.111781 0 0)
(-0.109526 0 0)
(-0.10727 0 0)
(-0.105014 0 0)
(-0.102758 0 0)
(-0.100502 0 0)
(-0.0982457 0 0)
(-0.0959892 0 0)
(-0.0937326 0 0)
(-0.0914759 0 0)
(-0.089219 0 0)
(-0.086962 0 0)
(-0.0847049 0 0)
(-0.0824476 0 0)
(-0.0801902 0 0)
(-0.0779327 0 0)
(-0.0756751 0 0)
(-0.0734173 0 0)
(-0.0711595 0 0)
(-0.0689015 0 0)
(-0.0666435 0 0)
(-0.0643853 0 0)
(-0.062127 0 0)
(-0.0598687 0 0)
(-0.0576102 0 0)
(-0.0553517 0 0)
(-0.0530931 0 0)
(-0.0508344 0 0)
(-0.0485756 0 0)
(-0.0463168 0 0)
(-0.0440579 0 0)
(-0.0417989 0 0)
(-0.0395399 0 0)
(-0.0372808 0 0)
(-0.0350216 0 0)
(-0.0327624 0 0)
(-0.0305031 0 0)
(-0.0282438 0 0)
(-0.0259845 0 0)
(-0.0237251 0 0)
(-0.0214657 0 0)
(-0.0192062 0 0)
(-0.0169467 0 0)
(-0.0146872 0 0)
(-0.0124277 0 0)
(-0.0101681 0 0)
(-0.00790855 0 0)
(-0.00564897 0 0)
(-0.00338939 0 0)
(-0.0011298 0 0)
)
;

boundaryField
{
    left
    {
        type            fixedValue;
        value           uniform (0 0 0);
    }
    right
    {
        type            fixedValue;
        value           uniform (0 0 0);
    }
    frontBackUpDown
    {
        type            empty;
    }
}


// ************************************************************************* //
