/*--------------------------------*- C++ -*----------------------------------*\
| =========                 |                                                 |
| \\      /  F ield         | OpenFOAM: The Open Source CFD Toolbox           |
|  \\    /   O peration     | Version:  2412                                  |
|   \\  /    A nd           | Website:  www.openfoam.com                      |
|    \\/     M anipulation  |                                                 |
\*---------------------------------------------------------------------------*/
FoamFile
{
    version     2.0;
    format      ascii;
    arch        "LSB;label=32;scalar=64";
    class       volScalarField;
    location    "1";
    object      p;
}
// * * * * * * * * * * * * * * * * * * * * * * * * * * * * * * * * * * * * * //

dimensions      [0 2 -2 0 0 0 0];

internalField   nonuniform List<scalar> 
2200
(
1.44185
1.38929
1.35156
1.34592
1.34865
1.41817
1.62028
1.96504
2.37354
2.80368
2.82289
2.41904
2.0278
1.69317
1.49667
1.42974
1.42757
1.43346
1.47135
1.52401
1.73522
1.62568
1.47012
1.38917
1.40751
1.52325
1.78395
2.2692
2.83343
3.26575
3.28184
2.87619
2.33049
1.85621
1.60126
1.4884
1.4714
1.55296
1.70879
1.8184
2.86955
2.73524
2.44127
2.01881
1.73645
1.80694
2.17087
2.77346
3.50699
4.16458
4.17877
3.54926
2.83634
2.24644
1.88913
1.82133
2.10462
2.52723
2.82099
2.95519
4.71836
4.59915
4.32659
3.87238
3.34508
2.96096
2.90987
3.34652
4.18394
5.00295
5.02111
4.23351
3.41864
2.99339
3.04983
3.43545
3.96289
4.41623
4.68813
4.80699
6.68161
6.6007
6.40093
6.05844
5.59558
5.07344
4.75252
4.67064
4.94973
5.34175
5.36426
5.01319
4.75329
4.84496
5.16981
5.692
6.15343
6.49455
6.69358
6.77427
8.27575
8.22872
8.10644
7.87743
7.54857
7.18085
6.83336
6.59845
6.53558
6.54711
6.57149
6.60082
6.68726
6.93605
7.28455
7.65213
7.98026
8.20842
8.33
8.37669
9.31649
9.28782
9.22129
9.08855
8.88985
8.64874
8.4219
8.41694
8.47187
8.54329
8.57168
8.54051
8.51462
8.53423
8.76697
9.00919
9.20706
9.33867
9.4049
9.43361
9.86491
9.8457
9.81003
9.73893
9.63544
9.50943
9.38328
9.35336
9.54011
9.74099
9.77482
9.62898
9.47154
9.51679
9.64927
9.77792
9.88229
9.95443
9.99069
10.0102
10.083
10.0685
10.0467
10.0058
9.94694
9.87142
9.78667
9.7454
9.8209
9.93839
9.97723
9.92108
9.88775
9.94968
10.0445
10.1255
10.1867
10.2287
10.251
10.266
10.1266
10.1153
10.1011
10.0767
10.0429
9.99825
9.9508
9.91412
9.92233
9.97365
10.0223
10.0463
10.0858
10.1498
10.2145
10.2669
10.3058
10.3328
10.3489
10.3602
10.0883
10.0802
10.0714
10.0579
10.0416
10.0206
10.0009
10.0019
10.0153
10.0812
10.1335
10.172
10.2096
10.253
10.2942
10.3273
10.3527
10.3727
10.3844
10.3941
10.0087
10.0036
9.9991
9.99283
9.98778
9.98488
9.98216
10.002
10.0488
10.117
10.1826
10.2298
10.2646
10.2995
10.3302
10.3544
10.3716
10.3843
10.3923
10.4009
9.90321
9.90015
9.89872
9.8974
9.89813
9.90579
9.91804
9.93575
10.0003
10.0629
10.1636
10.226
10.2742
10.314
10.3431
10.3638
10.3778
10.3859
10.3911
10.3948
9.77418
9.77257
9.77314
9.77574
9.78079
9.79288
9.82014
9.84842
9.91255
10.0054
10.1263
10.2058
10.2735
10.3222
10.3543
10.3764
10.3905
10.3994
10.4032
10.4043
9.62221
9.62204
9.62458
9.63098
9.64286
9.66085
9.69841
9.75138
9.83432
9.96361
10.087
10.1948
10.2812
10.3395
10.3795
10.4072
10.4241
10.4328
10.4366
10.4396
9.44696
9.44848
9.4538
9.46442
9.48426
9.51439
9.56293
9.64108
9.74456
9.90255
10.0525
10.1977
10.3039
10.3763
10.4285
10.4614
10.4802
10.4914
10.5005
10.5067
9.23989
9.24259
9.2504
9.26555
9.2924
9.33637
9.40412
9.50849
9.62287
9.82444
10.0243
10.2124
10.3444
10.4358
10.4977
10.5381
10.5677
10.5901
10.6045
10.6071
8.98373
8.98779
8.99834
9.01793
9.05167
9.1061
9.1865
9.32171
9.49735
9.74096
10.003
10.2399
10.4053
10.5211
10.5988
10.6488
10.6801
10.6994
10.7072
10.7088
8.66765
8.67246
8.68549
8.71153
8.75552
8.82731
8.93474
9.09796
9.33926
9.65066
9.99023
10.2847
10.4924
10.637
10.7329
10.7943
10.8309
10.8519
10.8636
10.8699
8.26963
8.27749
8.297
8.33208
8.39279
8.49018
8.63767
8.85335
9.16392
9.55911
9.99317
10.3574
10.6186
10.7998
10.9204
10.999
11.048
11.0768
11.0937
11.1011
7.77006
7.779
7.80262
7.8523
7.93525
8.069
8.27183
8.56268
8.96569
9.46901
10.0157
10.4675
10.7939
11.0206
11.1725
11.2708
11.3314
11.3664
11.3831
11.3893
7.10388
7.11986
7.16088
7.23099
7.34989
7.53839
7.81865
8.21048
8.7348
9.37633
10.0567
10.6144
11.0178
11.2995
11.4898
11.614
11.691
11.7357
11.7606
11.7694
6.2298
6.25238
6.30668
6.41616
6.59789
6.8745
7.27083
7.80172
8.48105
9.2917
10.1287
10.8095
11.3032
11.6526
11.8936
12.0538
12.1561
12.2158
12.2448
12.2556
5.00284
5.05401
5.16703
5.35384
5.64037
6.05982
6.62403
7.33904
8.21141
9.21954
10.2322
11.0502
11.6462
12.0751
12.3792
12.589
12.7268
12.8144
12.8655
12.8853
3.32444
3.43016
3.63114
3.96208
4.45393
5.09619
5.88596
6.83402
7.93626
9.16647
10.3709
11.337
12.0455
12.5654
12.9458
13.2228
13.4199
13.5489
13.6237
13.6576
1.01139
1.17418
1.61308
2.26975
3.07439
4.00695
5.08731
6.31871
7.68325
9.15456
10.5601
11.6789
12.5048
13.123
13.5885
13.9392
14.2067
14.4112
14.5533
14.606
-2.39743
-1.65192
-0.632451
0.446489
1.59308
2.85793
4.2671
5.80463
7.44975
9.18418
10.8145
12.1121
13.0853
13.8343
14.4233
14.8938
15.2748
15.5986
15.8836
16.071
-6.19931
-4.40179
-2.81107
-1.38833
0.106561
1.73004
3.47421
5.30983
7.23398
9.23968
11.1147
12.6145
13.7536
14.647
15.3674
15.9621
16.4556
16.8567
17.2044
17.5656
-8.71668
-6.5697
-4.88311
-3.14476
-1.28225
0.70734
2.75938
4.86923
7.05465
9.30868
11.3999
13.0673
14.3305
15.3174
16.1053
16.7456
17.2781
17.7176
18.008
18.3738
-10.4259
-8.11827
-6.55355
-4.61173
-2.44522
-0.178251
2.11524
4.46557
6.88453
9.353
11.6219
13.414
14.7567
15.7909
16.6013
17.2431
17.7639
18.2312
18.4731
18.8481
-11.6142
-9.2506
-7.77733
-5.6402
-3.31215
-0.91536
1.53981
4.08712
6.70123
9.34905
11.7643
13.6528
15.0505
16.1132
16.936
17.5784
18.0787
18.5646
18.7924
19.1652
-12.5145
-10.1124
-8.64669
-6.32766
-3.94659
-1.51219
1.05247
3.75301
6.52074
9.3183
11.8594
13.8304
15.2751
16.3631
17.1992
17.8473
18.3346
18.8249
19.0512
19.414
-13.2933
-10.8281
-9.33374
-6.83128
-4.4733
-2.00719
0.655519
3.4751
6.36051
9.28279
11.9333
13.978
15.4659
16.5775
17.4259
18.0805
18.5625
19.0476
19.2782
19.6277
-13.9601
-11.4568
-9.93389
-7.30986
-4.97492
-2.45006
0.31948
3.23336
6.21286
9.24123
11.9886
14.102
15.6317
16.7666
17.6261
18.287
18.7716
19.2444
19.4843
19.8198
-14.5795
-12.0221
-10.5001
-7.78217
-5.46177
-2.86089
0.0138515
3.00121
6.06313
9.18537
12.022
14.2033
15.7769
16.9377
17.8105
18.4778
18.9693
19.4303
19.6751
20.0045
-15.1558
-12.5293
-11.0438
-8.24197
-5.92912
-3.22618
-0.274794
2.76801
5.90419
9.11052
12.0322
14.2836
15.9061
17.0983
17.9889
18.665
19.1641
19.6201
19.8626
20.1955
-15.6449
-13.0036
-11.5123
-8.67418
-6.35719
-3.55814
-0.55749
2.53329
5.73601
9.01706
12.0195
14.3436
16.0221
17.2538
18.169
18.8582
19.3674
19.8218
20.0621
20.3948
-16.1083
-13.4124
-11.9482
-9.04276
-6.73739
-3.86471
-0.832625
2.30236
5.56148
8.90551
11.9819
14.3804
16.1229
17.4046
18.3542
19.064
19.5869
20.0446
20.2878
20.6133
-16.535
-13.8105
-12.3278
-9.39102
-7.08075
-4.15105
-1.09935
2.07347
5.37762
8.774
11.9174
14.391
16.2048
17.5491
18.5462
19.2867
19.8298
20.2872
20.5406
20.8531
-16.9239
-14.1872
-12.6987
-9.72743
-7.40398
-4.43063
-1.36075
1.8465
5.18787
8.62707
11.8272
14.3717
16.261
17.6791
18.7399
19.5266
20.1018
20.5709
20.8379
21.1445
-17.2817
-14.5245
-13.0534
-10.0424
-7.70928
-4.70067
-1.61201
1.62425
4.99343
8.46345
11.7078
14.3172
16.2832
17.7847
18.9281
19.7829
20.4059
20.8899
21.1678
21.4635
-17.6497
-14.8738
-13.3503
-10.3322
-7.99265
-4.95674
-1.8557
1.40204
4.79178
8.28548
11.5642
14.2289
16.2678
17.8548
19.0923
20.0379
20.7345
21.2768
21.5937
21.887
-17.9581
-15.1766
-13.668
-10.6278
-8.26411
-5.20609
-2.09324
1.1841
4.59123
8.10141
11.3999
14.1033
16.2048
17.8747
19.2159
20.2834
21.0928
21.7043
22.0731
22.3606
-18.2657
-15.488
-13.9624
-10.9063
-8.52208
-5.44438
-2.31726
0.9757
4.39253
7.90808
11.2131
13.9408
16.0946
17.84
19.2757
20.4579
21.4076
22.1686
22.6376
22.9444
-18.5554
-15.7804
-14.2238
-11.1545
-8.75219
-5.66053
-2.52763
0.77222
4.19214
7.70914
11.0144
13.751
15.9366
17.7405
19.2609
20.5725
21.6949
22.6312
23.293
23.7524
-18.7734
-15.9537
-14.3969
-11.3513
-8.95498
-5.86619
-2.73242
0.573569
3.99839
7.51572
10.8098
13.5348
15.7312
17.5794
19.1632
20.5477
21.7964
22.9562
23.9287
24.6478
-19.004
-16.16
-14.5983
-11.5582
-9.17321
-6.07478
-2.92879
0.387092
3.81327
7.31929
10.5862
13.2828
15.4678
17.3325
18.9595
20.4057
21.7497
23.0664
24.2853
25.1311
-19.3219
-16.5857
-14.9954
-11.8592
-9.39774
-6.26785
-3.1115
0.203086
3.61644
7.10178
10.338
12.995
15.1434
16.9919
18.6345
20.085
21.3739
22.5134
23.3652
23.8472
-19.591
-16.8347
-15.2005
-12.0552
-9.55824
-6.4397
-3.29378
0.00787127
3.40827
6.87777
10.0784
12.6747
14.7522
16.5274
18.1011
19.4825
20.6257
21.5442
22.2102
22.6452
-19.6234
-16.6928
-15.1045
-12.0762
-9.72048
-6.62952
-3.48807
-0.191189
3.20276
6.64789
9.79374
12.3087
14.2867
15.9489
17.4011
18.6607
19.6981
20.4825
20.997
21.3861
-19.7817
-16.8657
-15.3379
-12.2731
-9.96784
-6.82616
-3.67773
-0.383625
2.99162
6.39572
9.48172
11.9129
13.7757
15.2951
16.5838
17.6825
18.6354
19.3527
19.7386
20.1599
-20.191
-17.4369
-15.9017
-12.6573
-10.19
-6.99953
-3.8641
-0.585065
2.76062
6.12711
9.16114
11.5035
13.2279
14.5723
15.685
16.6494
17.4707
18.1197
18.3715
18.7773
-20.4658
-17.6293
-16.0299
-12.7747
-10.3309
-7.1839
-4.06457
-0.803164
2.52082
5.85972
8.83747
11.0799
12.6529
13.8209
14.7427
15.4953
16.075
16.5391
16.7797
17.232
-20.4912
-17.4836
-15.8912
-12.7866
-10.5275
-7.39337
-4.27097
-1.01965
2.29328
5.60157
8.5086
10.6447
12.0639
13.0304
13.7133
14.1833
14.4584
14.5069
14.468
14.8729
-20.6512
-17.7701
-16.24
-13.082
-10.7724
-7.5845
-4.46651
-1.21714
2.08106
5.34367
8.16832
10.1969
11.4652
12.2036
12.6333
12.8284
12.7433
12.0544
10.9921
11.2792
-20.9729
-18.2238
-16.634
-13.3676
-10.9496
-7.7603
-4.64821
-1.40281
1.86332
5.07309
7.82216
9.74821
10.8953
11.4204
11.5683
11.4352
11.0021
9.57895
6.83543
4.35454
-21.1231
-18.2845
-16.6398
-13.4504
-11.1174
-7.9417
-4.82182
-1.5996
1.63179
4.80558
7.49613
9.32003
10.3667
10.7135
10.5526
10.0472
9.21467
7.51529
2.31312
-10.8109
-21.2239
-18.3763
-16.765
-13.62
-11.3239
-8.11288
-5.00634
-1.81225
1.40339
4.55239
7.18584
8.9044
9.85868
10.0998
9.66454
8.81817
7.62868
6.27996
4.5945
-1.06895
-21.4899
-18.7003
-17.0723
-13.8732
-11.5263
-8.29663
-5.21847
-2.02928
1.1797
4.29595
6.87726
8.51421
9.37681
9.59583
9.09124
8.08686
6.90472
6.11033
6.72168
5.47921
-21.728
-18.9125
-17.2436
-14.0574
-11.7463
-8.50477
-5.42879
-2.23594
0.956812
4.03733
6.58263
8.19092
8.98452
9.23331
8.94031
8.25493
7.37686
6.58688
7.33834
6.69332
-21.8963
-19.0724
-17.4088
-14.2448
-11.9721
-8.67776
-5.61192
-2.44002
0.729071
3.78093
6.30194
7.93827
8.77503
9.1539
9.13598
9.00085
8.84813
7.9923
8.27559
8.02869
-22.1171
-19.3079
-17.6348
-14.4383
-12.147
-8.807
-5.80519
-2.66619
0.488326
3.52745
6.04469
7.74951
8.74173
9.33311
9.64743
9.81454
10.3622
10.074
10.0627
10.1099
-22.318
-19.4993
-17.8112
-14.61
-12.3298
-8.96143
-6.04117
-2.90655
0.253533
3.3012
5.84769
7.63109
8.80991
9.62063
10.2626
10.5567
11.2082
11.5102
11.9064
12.2224
-22.484
-19.6655
-17.9916
-14.8119
-12.5542
-9.13999
-6.27389
-3.11318
0.0577188
3.11887
5.71705
7.57794
8.89572
9.87042
10.6737
11.122
11.7609
12.2648
12.8554
13.3155
-22.6652
-19.8467
-18.1729
-14.9882
-12.7129
-9.28881
-6.45367
-3.27061
-0.105648
2.9619
5.61393
7.56102
8.94686
10.0111
10.9115
11.5288
12.2263
12.7441
13.2533
13.6918
-22.7771
-19.9525
-18.2652
-15.0683
-12.7885
-9.40845
-6.59855
-3.40374
-0.260048
2.81534
5.51155
7.5465
8.99958
10.1046
11.0792
11.8168
12.5249
13.0364
13.4545
13.894
-22.7961
-19.9715
-18.297
-15.1127
-12.8389
-9.54379
-6.72232
-3.52244
-0.404833
2.68457
5.41359
7.51482
9.05537
10.1986
11.2132
11.9826
12.6532
13.1895
13.558
14.0014
-22.7691
-19.9578
-18.3069
-15.151
-12.8554
-9.66636
-6.79067
-3.6346
-0.523905
2.56782
5.32003
7.46219
9.05496
10.2699
11.2793
12.0555
12.6923
13.2464
13.5934
14.049
-22.6633
-19.8606
-18.2317
-15.1318
-12.78
-9.70781
-6.81444
-3.70218
-0.621461
2.45391
5.21731
7.38184
9.0035
10.2464
11.2589
12.0417
12.6664
13.2261
13.5554
14.0054
-22.4028
-19.6154
-18.0006
-15.0022
-12.6038
-9.64498
-6.77628
-3.73126
-0.702313
2.33732
5.092
7.25932
8.88855
10.1427
11.1535
11.9517
12.5534
13.1465
13.4426
13.913
-21.9624
-19.2008
-17.5918
-14.7225
-12.3257
-9.47152
-6.66598
-3.71747
-0.76417
2.21459
4.92994
7.07915
8.7035
9.96073
10.9668
11.7796
12.3677
12.9841
13.2697
13.7452
-21.2857
-18.5825
-16.9651
-14.2455
-11.9043
-9.17575
-6.46877
-3.64552
-0.799905
2.08177
4.72418
6.83193
8.43529
9.68537
10.6825
11.4943
12.0976
12.6924
13.0169
13.4738
-20.2743
-17.6771
-16.0616
-13.5224
-11.289
-8.7287
-6.16744
-3.5063
-0.808856
1.93396
4.46661
6.50198
8.06013
9.28502
10.266
11.0685
11.6917
12.2676
12.6239
13.0783
-18.807
-16.3422
-14.8308
-12.5252
-10.4432
-8.10494
-5.7473
-3.29717
-0.795121
1.765
4.14601
6.07092
7.55243
8.72587
9.67304
10.4535
11.0776
11.6426
12.0104
12.4683
-16.6943
-14.5075
-13.2
-11.1891
-9.34081
-7.29105
-5.19479
-3.00555
-0.746309
1.58494
3.76657
5.53508
6.89743
7.97869
8.85584
9.58379
10.1811
10.7143
11.0943
11.5476
-13.8406
-12.0703
-11.1188
-9.50683
-7.95254
-6.26362
-4.49818
-2.62547
-0.659749
1.39018
3.31924
4.88002
6.07249
7.00879
7.75971
8.3751
8.87823
9.31342
9.63805
10.0311
-9.9275
-8.86112
-8.6192
-7.42806
-6.28409
-5.05852
-3.69748
-2.18431
-0.54238
1.20715
2.87789
4.23126
5.25198
6.03528
6.64276
7.11807
7.4884
7.78579
7.9712
8.20882
-6.07876
-5.68529
-5.9483
-5.12326
-4.53312
-3.79593
-2.83975
-1.68641
-0.365909
1.09647
2.5268
3.69302
4.56566
5.2203
5.70829
6.0672
6.32229
6.51805
6.56705
6.66816
-3.60296
-3.45804
-3.70524
-3.20024
-3.00965
-2.602
-1.97009
-1.14226
-0.128979
1.05043
2.23757
3.21107
3.92916
4.44918
4.81464
5.06065
5.21314
5.32194
5.32503
5.36141
-2.28096
-2.18357
-2.29691
-1.96211
-1.88851
-1.62856
-1.21145
-0.635578
0.115159
1.03416
1.9897
2.77971
3.35415
3.75685
4.02715
4.20001
4.30121
4.37544
4.38746
4.41246
-1.5101
-1.47055
-1.5181
-1.28067
-1.20218
-0.987364
-0.676028
-0.251433
0.314081
1.02634
1.78456
2.41701
2.87474
3.19279
3.40606
3.54513
3.62979
3.69237
3.7123
3.73124
-0.967912
-0.954828
-0.974069
-0.831685
-0.756591
-0.578645
-0.329638
0.00691762
0.452801
1.01614
1.62082
2.12828
2.49709
2.75538
2.93109
3.04764
3.11912
3.16808
3.18615
3.198
-0.528999
-0.522879
-0.525474
-0.449869
-0.392291
-0.26184
-0.0727389
0.191475
0.54575
0.995486
1.48039
1.88895
2.1869
2.39606
2.53796
2.63103
2.68711
2.72286
2.73742
2.74548
-0.193814
-0.18625
-0.180736
-0.137149
-0.0930594
-0.0012797
0.136267
0.336179
0.611389
0.966811
1.35401
1.68163
1.92037
2.08702
2.19887
2.27129
2.31482
2.34159
2.35371
2.36008
0.0436825
0.0495542
0.0574417
0.0864494
0.122768
0.190908
0.293509
0.444861
0.65678
0.935174
1.24222
1.50324
1.6932
1.82524
1.91348
1.97047
2.00506
2.02591
2.03598
2.04113
0.206255
0.210283
0.217909
0.238526
0.268427
0.32101
0.400379
0.517517
0.682233
0.900497
1.14328
1.35051
1.5014
1.60627
1.6764
1.72172
1.74942
1.76583
1.77398
1.77806
0.317889
0.321021
0.327575
0.342688
0.366575
0.407174
0.469048
0.56055
0.689514
0.861161
1.0531
1.21746
1.33729
1.42063
1.47638
1.51235
1.53439
1.54731
1.55382
1.55704
0.392607
0.395097
0.400498
0.411886
0.430673
0.461968
0.510067
0.581424
0.682397
0.817416
0.969091
1.09933
1.19435
1.26044
1.30462
1.33309
1.35057
1.36075
1.36593
1.3685
0.438065
0.440035
0.444372
0.453097
0.467833
0.492094
0.529525
0.585149
0.664158
0.770294
0.890029
0.993063
1.06827
1.12057
1.15554
1.17807
1.19194
1.19999
1.2041
1.20614
0.460361
0.461903
0.465333
0.472095
0.483673
0.502585
0.531804
0.575261
0.637148
0.720557
0.814953
0.896329
0.955767
0.997117
1.02479
1.04263
1.0536
1.05996
1.0632
1.06481
0.464515
0.465721
0.468431
0.473714
0.482793
0.497559
0.52042
0.554449
0.60298
0.668515
0.74286
0.807067
0.854011
0.886692
0.908563
0.922642
0.931293
0.936293
0.938847
0.94011
0.454859
0.455812
0.45795
0.46208
0.469169
0.480703
0.498595
0.525242
0.563277
0.614707
0.673174
0.723755
0.760766
0.786531
0.803755
0.814825
0.821627
0.82556
0.827574
0.828569
0.434234
0.434974
0.436639
0.439849
0.445381
0.454403
0.468396
0.489234
0.518992
0.559289
0.605199
0.64498
0.6741
0.694358
0.707896
0.716602
0.721962
0.725071
0.726669
0.727461
0.405187
0.405766
0.407061
0.409556
0.413882
0.42093
0.431846
0.448101
0.471329
0.502834
0.538787
0.56995
0.592738
0.608592
0.6192
0.626039
0.630259
0.632706
0.633959
0.634572
0.369513
0.36996
0.370962
0.372907
0.376281
0.381759
0.390234
0.402856
0.420905
0.4454
0.473371
0.49764
0.515436
0.527851
0.536188
0.541576
0.544892
0.546805
0.547781
0.548258
0.328565
0.328911
0.329691
0.331194
0.333797
0.338015
0.34455
0.35429
0.368228
0.387178
0.408862
0.427703
0.441509
0.45114
0.457593
0.461743
0.464295
0.465759
0.466499
0.466861
0.284277
0.284524
0.285106
0.286245
0.288226
0.291435
0.296416
0.303854
0.314508
0.328967
0.345451
0.35973
0.370216
0.377565
0.382489
0.385645
0.387578
0.388689
0.389257
0.389545
0.236393
0.23659
0.237039
0.23791
0.239407
0.241831
0.245589
0.251154
0.259087
0.269829
0.282064
0.292732
0.300613
0.306111
0.309797
0.312165
0.313614
0.314462
0.314896
0.315113
0.186327
0.186541
0.186948
0.187624
0.188732
0.190485
0.193168
0.197138
0.202786
0.210447
0.21927
0.226964
0.232559
0.236414
0.23897
0.240613
0.241616
0.242183
0.242461
0.24259
0.134127
0.134278
0.1345
0.134902
0.135594
0.136702
0.138407
0.141004
0.144757
0.149872
0.155683
0.160574
0.164123
0.166698
0.16843
0.169561
0.170267
0.170669
0.170884
0.170994
0.0794489
0.0794712
0.0795359
0.0797146
0.080054
0.0806428
0.0816116
0.0830897
0.0852477
0.088205
0.0913469
0.0940282
0.0959662
0.097492
0.0985575
0.0992339
0.099692
0.0999931
0.100159
0.100272
0.0257885
0.025784
0.0258039
0.0258712
0.0259937
0.0262138
0.0265871
0.0271359
0.0279196
0.0289741
0.0301957
0.0313978
0.0322266
0.0324267
0.0326383
0.0328215
0.0329651
0.0330756
0.0331535
0.0332341
11.3501
16.5786
17.7871
19.31
20.4639
21.5336
22.5573
23.6076
24.4921
25.075
16.9938
19.4364
20.1287
21.1015
21.9553
22.7432
23.4507
24.1264
24.526
24.7182
19.9261
21.1775
21.6996
22.3053
22.8717
23.3931
23.8229
24.1984
24.3759
24.4367
21.6192
22.3302
22.6559
23.0921
23.4327
23.7662
23.987
24.198
24.2536
24.272
22.6639
23.0779
23.2553
23.5306
23.7092
23.9308
24.0392
24.1674
24.1856
24.2144
23.286
23.5391
23.6169
23.8341
23.9024
24.0626
24.0786
24.1838
24.1628
24.2049
23.6665
23.8381
23.8403
24.0128
23.9929
24.1421
24.0998
24.2195
24.1671
24.2232
23.8976
24.0292
23.9761
24.1497
24.0683
24.2171
24.1439
24.2547
24.201
24.2587
24.0653
24.1627
24.099
24.243
24.1534
24.2823
24.2097
24.3054
24.2602
24.3111
24.2045
24.2756
24.2207
24.3227
24.2485
24.3488
24.2896
24.3614
24.3252
24.3622
24.2997
24.348
24.2984
24.3725
24.3123
24.387
24.3346
24.3848
24.3574
24.3743
24.315
24.3369
24.3229
24.3582
24.3395
24.3695
24.3481
24.3796
24.3603
24.3791
24.3421
24.3541
24.3468
24.3694
24.369
24.3886
24.3983
24.4228
24.4224
24.4428
24.4696
24.4966
24.5096
24.5227
24.5347
24.5421
24.5538
24.5659
24.57
24.591
24.7027
24.6969
24.6957
24.6944
24.695
24.6934
24.6955
24.7067
24.7167
24.7476
24.8597
24.7992
24.7665
24.7446
24.7332
24.7354
24.745
24.7612
24.7853
24.8509
)
;

boundaryField
{
    wall-4
    {
        type            zeroGradient;
    }
    pressure-outlet-7
    {
        type            fixedValue;
        value           uniform 0;
    }
    velocity-inlet-6
    {
        type            zeroGradient;
    }
    velocity-inlet-5
    {
        type            zeroGradient;
    }
    frontAndBackPlanes
    {
        type            empty;
    }
}


// ************************************************************************* //
