/*--------------------------------*- C++ -*----------------------------------*\
| =========                 |                                                 |
| \\      /  F ield         | OpenFOAM: The Open Source CFD Toolbox           |
|  \\    /   O peration     | Version:  2412                                  |
|   \\  /    A nd           | Website:  www.openfoam.com                      |
|    \\/     M anipulation  |                                                 |
\*---------------------------------------------------------------------------*/
FoamFile
{
    version     2.0;
    format      ascii;
    arch        "LSB;label=32;scalar=64";
    class       surfaceScalarField;
    location    "1";
    object      phi;
}
// * * * * * * * * * * * * * * * * * * * * * * * * * * * * * * * * * * * * * //

dimensions      [0 3 -1 0 0 0 0];

oriented        oriented;

internalField   nonuniform List<scalar> 
4262
(
-0.0538149
0.274328
-0.0324489
0.807287
-0.00880879
1.7435
0.001814
3.15454
-0.0148317
5.20125
-0.0432124
8.04275
-0.0691207
11.873
-0.0733822
16.824
-0.06128
22.8697
-0.00204747
29.4691
0.0586182
29.4677
0.0716471
22.8688
0.0676426
16.8237
0.0421005
11.8727
0.01401
8.04246
-0.00232509
5.20094
0.00852982
3.15431
0.0323668
1.74331
0.0538101
0.80721
0.274323
-0.241363
0.515691
-0.383689
0.949613
-0.383047
1.74286
-0.310088
3.08158
-0.2604
5.15156
-0.249826
8.03217
-0.263578
11.8868
-0.240983
16.8014
-0.172782
22.8015
-0.00482576
29.3012
0.163293
29.2996
0.233608
22.7985
0.258315
16.799
0.246176
11.8848
0.258179
8.03045
0.308981
5.15014
0.382532
3.08076
0.383501
1.74234
0.241303
0.949407
0.515626
-0.408224
0.923915
-0.825181
1.36657
-1.06523
1.98291
-1.17533
3.19169
-1.11647
5.09271
-0.925512
7.84121
-0.705469
11.6668
-0.518039
16.614
-0.288368
22.5718
-0.00724472
29.02
0.273885
29.0184
0.506479
22.5659
0.696792
16.6087
0.91956
11.6621
1.11285
7.83717
1.17321
5.08978
1.06412
3.18985
0.824796
1.98166
0.408067
1.36614
0.923693
-0.466955
1.39087
-1.05966
1.95928
-1.57043
2.49367
-1.94049
3.56175
-2.09028
5.2425
-2.03529
7.78622
-1.68483
11.3163
-1.19772
16.1269
-0.672088
22.0462
-0.00925126
28.3572
0.653285
28.3559
1.18015
22.039
1.67011
16.1188
2.02503
11.3071
2.08368
7.77852
1.93573
5.23772
1.56727
3.55832
1.05712
2.4918
0.465661
1.9576
1.38935
-0.458585
1.84946
-1.05853
2.55922
-1.71516
3.1503
-2.26373
4.11032
-2.58189
5.56066
-2.64805
7.85237
-2.42431
11.0926
-1.89362
15.5962
-1.06729
21.2199
-0.0149666
27.3049
1.03941
27.3015
1.87121
21.2072
2.40575
15.5842
2.63318
11.0797
2.57058
7.84111
2.25617
5.55213
1.71034
4.10414
1.05648
3.14566
0.457866
2.55621
1.84722
-0.398209
2.24766
-0.937719
3.09873
-1.55932
3.7719
-2.16546
4.71646
-2.64287
6.03807
-2.81252
8.02203
-2.71548
10.9955
-2.1914
15.0721
-1.2287
20.2572
-0.0179334
26.0941
1.19587
26.0877
2.16148
20.2416
2.69305
15.0527
2.79449
10.9783
2.62823
8.00738
2.15435
6.02601
1.55091
4.70759
0.931103
3.76547
0.394585
3.09273
2.2418
-0.312289
2.55995
-0.758352
3.54479
-1.28448
4.29803
-1.84079
5.27277
-2.37179
6.56908
-2.7062
8.35643
-2.71962
11.0089
-2.27662
14.6291
-1.33484
19.3154
-0.0221957
24.7815
1.29276
24.7728
2.23812
19.2963
2.68788
14.6029
2.68105
10.9851
2.35171
8.33672
1.82503
6.55268
1.27321
5.25941
0.75203
4.28665
0.310051
3.53471
2.55186
-0.225924
2.78588
-0.569918
3.88879
-0.980268
4.70838
-1.43022
5.72272
-1.88581
7.02467
-2.278
8.74862
-2.39169
11.1226
-2.09189
14.3293
-1.30677
18.5303
-0.0300801
23.5048
1.25136
23.4913
2.05045
18.4972
2.35591
14.2974
2.24709
11.0939
1.86183
8.72198
1.41307
7.00144
0.969468
5.70302
0.564298
4.69182
0.222486
3.87652
2.77434
-0.153333
2.93921
-0.403915
4.13937
-0.704045
5.00851
-1.0386
6.05728
-1.38626
7.37233
-1.69412
9.05648
-1.83997
11.2685
-1.68725
14.1766
-1.09171
17.9347
-0.0334836
22.4466
1.02851
22.4293
1.62234
17.9033
1.78763
14.1321
1.65347
11.2281
1.35427
9.02117
1.01297
7.34274
0.684046
6.03194
0.388419
4.98745
0.145546
4.11939
2.91989
-0.100092
3.0393
-0.275531
4.31481
-0.485797
5.21878
-0.721805
6.29329
-0.969242
7.61976
-1.19224
9.27948
-1.31619
11.3924
-1.2311
14.0915
-0.824812
17.5284
-0.0419466
21.6637
0.744152
21.6432
1.15906
17.4884
1.25077
14.0404
1.13944
11.3394
0.928223
9.23239
0.692571
7.5784
0.46612
6.25839
0.26488
5.18869
0.0972164
4.28706
3.0171
-0.0645063
3.10381
-0.18433
4.43463
-0.327825
5.36227
-0.489254
6.45472
-0.65908
7.78959
-0.813445
9.43384
-0.902689
11.4817
-0.857532
14.0463
-0.605962
17.2769
-0.0585857
21.1163
0.49617
21.0885
0.778635
17.206
0.833107
13.986
0.753569
11.4189
0.611168
9.37479
0.454609
7.73496
0.306948
6.40605
0.175631
5.32001
0.0599466
4.40274
3.07705
-0.0426033
3.14641
-0.124328
4.51636
-0.222164
5.46011
-0.332525
6.56508
-0.449519
7.90658
-0.559143
9.54347
-0.630184
11.5527
-0.623259
14.0394
-0.431968
17.0856
-0.0683702
20.7527
0.307228
20.7129
0.493817
17.0194
0.529984
13.9498
0.479677
11.4693
0.38933
9.46514
0.28771
7.83657
0.189743
6.50402
0.100959
5.40879
0.0276063
4.47609
3.10466
-0.0296878
3.1761
-0.0866932
4.57336
-0.154886
5.5283
-0.232166
6.64236
-0.314187
7.9886
-0.392476
9.62175
-0.450104
11.6103
-0.448709
14.038
-0.309021
16.9459
-0.0765785
20.5203
0.163225
20.4731
0.287263
16.8953
0.314787
13.9223
0.286004
11.498
0.23154
9.5196
0.168254
7.89986
0.104675
6.56759
0.0478175
5.46565
0.0105673
4.51334
3.11522
-0.0214196
3.19752
-0.0618567
4.6138
-0.110165
5.57661
-0.165143
6.69734
-0.223713
8.04717
-0.280722
9.67876
-0.324152
11.6538
-0.315193
14.0291
-0.251253
16.882
-0.0985637
20.3676
0.0515984
20.3229
0.138454
16.8085
0.163481
13.8972
0.150954
11.5106
0.120947
9.54961
0.0871488
7.93366
0.0544474
6.6003
0.0272458
5.49285
0.0111737
4.52942
3.1264
-0.017009
3.21453
-0.0469163
4.64371
-0.0824948
5.61219
-0.122884
6.73773
-0.166129
8.09042
-0.208089
9.72073
-0.240026
11.6857
-0.243459
14.0325
-0.247118
16.8856
-0.142995
20.2635
-0.038455
20.2184
0.0300219
16.74
0.0586731
13.8686
0.0638376
11.5054
0.0556769
9.55777
0.0440382
7.9453
0.0348077
6.60953
0.029702
5.49795
0.0178546
4.54126
3.14425
-0.0159721
3.2305
-0.0408094
4.66854
-0.0703597
5.64174
-0.103991
6.77136
-0.140412
8.12684
-0.175248
9.75556
-0.204372
11.7148
-0.220226
14.0484
-0.261567
16.927
-0.196068
20.198
-0.113116
20.1354
-0.0545067
16.6814
-0.0196453
13.8337
0.00136108
11.4844
0.014234
9.5449
0.0204131
7.93912
0.0238464
6.60609
0.0261774
5.49562
0.0135364
4.5539
3.15779
-0.0186131
3.24912
-0.0429012
4.69283
-0.0715224
5.67036
-0.10436
6.80419
-0.140432
8.16291
-0.175951
9.79108
-0.203907
11.7428
-0.229345
14.0738
-0.280185
16.9778
-0.246539
20.1643
-0.179702
20.0686
-0.128351
16.63
-0.0894717
13.7949
-0.0592168
11.4541
-0.0344954
9.52017
-0.0153705
7.91999
-0.00203817
6.59276
0.00368221
5.4899
0.000519084
4.55707
3.15831
-0.0204703
3.26959
-0.0468509
4.71921
-0.0781435
5.70165
-0.11424
6.84029
-0.154708
8.20338
-0.196767
9.83314
-0.232613
11.7786
-0.274634
14.1158
-0.312036
17.0152
-0.299516
20.1518
-0.248552
20.0176
-0.201076
16.5826
-0.157497
13.7513
-0.120155
11.4168
-0.0888347
9.48885
-0.06234
7.8935
-0.0395252
6.56995
-0.02454
5.47492
-0.0144608
4.54699
3.14385
-0.0278222
3.29741
-0.0592171
4.75061
-0.0957935
5.73823
-0.138463
6.88296
-0.18665
8.25157
-0.239669
9.88616
-0.294273
11.8332
-0.349846
14.1714
-0.365191
17.0305
-0.36371
20.1503
-0.32615
19.9801
-0.276661
16.5331
-0.225307
13.6999
-0.17852
11.37
-0.137999
9.44833
-0.103741
7.85924
-0.0754594
6.54166
-0.0529836
5.45244
-0.029598
4.5236
3.11425
-0.0309472
3.32835
-0.0691753
4.78883
-0.115076
5.78413
-0.168376
6.93626
-0.230116
8.31331
-0.298864
9.95491
-0.371879
11.9062
-0.436734
14.2362
-0.448373
17.0422
-0.455192
20.1571
-0.42217
19.947
-0.364365
16.4753
-0.301186
13.6367
-0.241301
11.3101
-0.18813
9.39516
-0.142843
7.81395
-0.105861
6.50468
-0.0735379
5.42012
-0.0371893
4.48725
3.07706
-0.0460495
3.3744
-0.0961707
4.83896
-0.153684
5.84164
-0.221584
7.00416
-0.29889
8.39061
-0.384389
10.0404
-0.473679
11.9955
-0.549578
14.3121
-0.571737
17.0643
-0.580931
20.1663
-0.539394
19.9055
-0.4681
16.404
-0.389561
13.5582
-0.313688
11.2343
-0.245108
9.32658
-0.18517
7.75402
-0.133777
6.45329
-0.0883603
5.3747
-0.0416878
4.44058
3.03537
-0.0526417
3.42705
-0.115519
4.90183
-0.193073
5.9192
-0.282956
7.09404
-0.385127
8.49279
-0.495689
10.151
-0.60563
12.1055
-0.696887
14.4034
-0.735158
17.1026
-0.741552
20.1727
-0.684984
19.8489
-0.595181
16.3142
-0.495747
13.4588
-0.397667
11.1362
-0.306689
9.2356
-0.225905
7.67323
-0.15591
6.38329
-0.0948157
5.31361
-0.0414781
4.38724
2.99389
-0.0868761
3.51392
-0.175113
4.99007
-0.273766
6.01785
-0.388575
7.20885
-0.519323
8.62353
-0.655517
10.2872
-0.785575
12.2355
-0.890882
14.5087
-0.940753
17.1525
-0.937779
20.1698
-0.860648
19.7718
-0.748301
16.2018
-0.625677
13.3361
-0.505503
11.016
-0.394234
9.12433
-0.294567
7.57357
-0.208407
6.29713
-0.1336
5.2388
-0.0614
4.31504
2.93249
-0.111451
3.62537
-0.22747
5.10609
-0.373375
6.16376
-0.543652
7.37913
-0.716913
8.79679
-0.883462
10.4537
-1.03348
12.3856
-1.147
14.6222
-1.19767
17.2032
-1.17641
20.1485
-1.07264
19.668
-0.933648
16.0628
-0.784171
13.1867
-0.636317
10.8681
-0.496446
8.98446
-0.367085
7.4442
-0.248958
6.17901
-0.147522
5.13736
-0.0663151
4.23384
2.86618
-0.223334
3.84871
-0.395891
5.27865
-0.602005
6.36987
-0.804662
7.58179
-1.00199
8.99413
-1.19083
10.6425
-1.35128
12.546
-1.46256
14.7335
-1.50208
17.2427
-1.45497
20.1014
-1.32059
19.5336
-1.15254
15.8948
-0.975757
13.0099
-0.802545
10.6949
-0.639905
8.82182
-0.492474
7.29677
-0.360479
6.04701
-0.236563
5.01345
-0.115829
4.1131
2.75035
-0.335581
4.18429
-0.676055
5.61912
-0.957017
6.65083
-1.19634
7.82111
-1.42249
9.22028
-1.62075
10.8408
-1.77261
12.6979
-1.86297
14.8239
-1.8738
17.2535
-1.78711
20.0147
-1.61397
19.3605
-1.41407
15.6949
-1.21012
12.8059
-1.01228
10.4971
-0.823877
8.63342
-0.64509
7.11799
-0.477521
5.87944
-0.32135
4.85728
-0.155797
3.94755
2.59455
-0.226596
4.41088
-0.50952
5.90204
-0.765117
6.90643
-1.0509
8.10688
-1.32993
9.49931
-1.58247
11.0934
-1.80152
12.9169
-1.97938
15.0017
-2.09246
17.3666
-2.10274
20.025
-1.98693
19.2447
-1.79348
15.5014
-1.55661
12.5691
-1.29859
10.2391
-1.03451
8.36933
-0.774995
6.85848
-0.528154
5.6326
-0.305604
4.63473
-0.123522
3.76547
2.47103
-0.0899215
4.50081
-0.19146
6.00358
-0.408753
7.12372
-0.648699
8.34683
-0.885445
9.73606
-1.1007
11.3086
-1.29274
13.109
-1.44846
15.1574
-1.54112
17.4592
-1.53545
20.0193
-1.41715
19.1264
-1.2366
15.3209
-1.02831
12.3608
-0.815256
10.026
-0.612846
8.16693
-0.430407
6.67604
-0.269953
5.47215
-0.127287
4.49206
-0.0329208
3.6711
2.43811
-0.065557
4.56636
-0.172758
6.11078
-0.2949
7.24586
-0.45321
8.50514
-0.614044
9.89689
-0.778622
11.4732
-0.939812
13.2701
-1.07226
15.2899
-1.14949
17.5365
-1.14294
20.0127
-1.04201
19.0255
-0.894113
15.173
-0.732165
12.1988
-0.574689
9.86855
-0.430847
8.02308
-0.304313
6.5495
-0.195226
5.36306
-0.0983846
4.39522
-0.0220413
3.59476
2.41607
-0.0343533
4.60072
-0.146601
6.22303
-0.270333
7.3696
-0.365755
8.60056
-0.464468
9.9956
-0.587269
11.596
-0.71481
13.3977
-0.820307
15.3954
-0.883176
17.5993
-0.878812
20.0084
-0.79752
18.9442
-0.679887
15.0554
-0.553525
12.0725
-0.432149
9.74717
-0.321479
7.91241
-0.223463
6.45149
-0.139498
5.27909
-0.0695815
4.3253
-0.0153104
3.54049
2.40076
-0.0243966
4.62511
-0.11314
6.31177
-0.200915
7.45737
-0.280014
8.67966
-0.370486
10.0861
-0.473777
11.6993
-0.57284
13.4968
-0.654072
15.4766
-0.704612
17.6499
-0.701563
20.0053
-0.635327
18.878
-0.539407
14.9594
-0.436782
11.9698
-0.338868
9.64926
-0.25065
7.8242
-0.173906
6.37474
-0.11004
5.21523
-0.0568293
4.27209
-0.0151923
3.49885
2.38557
-0.0242217
4.64933
-0.0908205
6.37837
-0.15853
7.52508
-0.219896
8.74103
-0.307209
10.1734
-0.395937
11.788
-0.475815
13.5766
-0.542097
15.5429
-0.585037
17.6928
-0.583471
20.0038
-0.528485
18.823
-0.448135
14.8791
-0.36234
11.884
-0.281184
9.5681
-0.208964
7.75198
-0.146485
6.31226
-0.0937935
5.16254
-0.05267
4.23097
-0.0157772
3.46196
2.36979
-0.0224643
4.6718
-0.0633547
6.41926
-0.113595
7.57532
-0.180923
8.80836
-0.256389
10.2489
-0.335792
11.8674
-0.404552
13.6454
-0.463876
15.6022
-0.503485
17.7324
-0.50495
20.0052
-0.459641
18.7777
-0.391166
14.8106
-0.317363
11.8102
-0.247405
9.49814
-0.185303
7.68987
-0.13172
6.25868
-0.0852351
5.11605
-0.049354
4.19509
-0.0179703
3.43057
2.35182
-0.0268418
4.69864
-0.0702742
6.46269
-0.119455
7.6245
-0.16446
8.85336
-0.226663
10.3111
-0.291421
11.9322
-0.350908
13.7049
-0.407301
15.6586
-0.446838
17.772
-0.453491
20.0119
-0.417412
18.7416
-0.358265
14.7515
-0.292694
11.7447
-0.229581
9.43503
-0.173048
7.63334
-0.124384
6.21002
-0.0824762
5.07414
-0.0482227
4.16084
-0.0202816
3.40263
2.33154
-0.0184036
4.71704
-0.0519964
6.49629
-0.0885008
7.66101
-0.145308
8.91017
-0.206815
10.3726
-0.259194
11.9845
-0.313661
13.7593
-0.367763
15.7127
-0.407849
17.8121
-0.42045
20.0245
-0.393537
18.7147
-0.342395
14.7003
-0.2827
11.685
-0.223637
9.37597
-0.169829
7.57953
-0.123112
6.1633
-0.0831748
5.03421
-0.0491393
4.1268
-0.0220323
3.37553
2.30951
-0.0171806
4.73422
-0.0614286
6.54054
-0.094784
7.69436
-0.134331
8.94971
-0.184337
10.4226
-0.232397
12.0326
-0.285481
13.8124
-0.337577
15.7648
-0.379513
17.854
-0.399822
20.0448
-0.383202
18.698
-0.339812
14.6569
-0.284456
11.6296
-0.227111
9.31862
-0.173458
7.52588
-0.12616
6.116
-0.0854293
4.99348
-0.0510868
4.09246
-0.0229175
3.34736
2.28659
-0.0200966
4.75432
-0.0511545
6.57159
-0.0763188
7.71953
-0.124364
8.99776
-0.168997
10.4672
-0.212335
12.0759
-0.263894
13.864
-0.315352
15.8163
-0.360424
17.8991
-0.388667
20.073
-0.382438
18.6918
-0.346983
14.6215
-0.295617
11.5783
-0.239048
9.26205
-0.18443
7.47126
-0.135277
6.06685
-0.092609
4.95081
-0.0566273
4.05648
-0.025369
3.3161
2.26122
-0.00602738
4.76035
-0.0539102
6.61948
-0.0743954
7.74001
-0.115382
9.03874
-0.154384
10.5062
-0.196927
12.1185
-0.247171
13.9142
-0.297543
15.8666
-0.345029
17.9466
-0.381068
20.1091
-0.386662
18.6974
-0.360962
14.5958
-0.314682
11.532
-0.258233
9.2056
-0.200487
7.41352
-0.147033
6.01339
-0.0994431
4.90322
-0.0608477
4.01788
-0.0275342
3.28279
2.23368
-0.018477
4.77883
-0.0423458
6.64335
-0.0631449
7.76081
-0.105649
9.08125
-0.141344
10.5419
-0.183119
12.1603
-0.231524
13.9626
-0.281567
15.9167
-0.332384
17.9974
-0.377119
20.1538
-0.395441
18.7157
-0.380582
14.5809
-0.341004
11.4924
-0.286253
9.15085
-0.226202
7.35347
-0.168767
5.95596
-0.117302
4.85175
-0.0731595
3.97374
-0.0318285
3.24145
2.20186
-0.00225328
4.78108
-0.0453684
6.68646
-0.0612276
7.77667
-0.0976632
9.11768
-0.130245
10.5745
-0.171153
12.2012
-0.217886
14.0094
-0.268129
15.9669
-0.321612
18.0509
-0.373356
20.2055
-0.40374
18.7461
-0.401381
14.5786
-0.371488
11.4625
-0.32052
9.09988
-0.256461
7.28941
-0.189988
5.88948
-0.128553
4.79032
-0.0790313
3.92422
-0.0344755
3.1969
2.16738
-0.0129786
4.79406
-0.0354686
6.70895
-0.0544552
7.79566
-0.0900925
9.15332
-0.120864
10.6053
-0.160138
12.2404
-0.205184
14.0544
-0.254968
16.0167
-0.310158
18.106
-0.368307
20.2637
-0.411377
18.7892
-0.423389
14.5906
-0.405646
11.4448
-0.363264
9.0575
-0.302965
7.22911
-0.233148
5.81967
-0.166494
4.72367
-0.106295
3.86402
-0.0489242
3.13953
2.11846
-0.000720044
4.79478
-0.0302901
6.73852
-0.0478564
7.81322
-0.0819242
9.18739
-0.111578
10.6349
-0.14991
12.2788
-0.193218
14.0977
-0.242424
16.0659
-0.299068
18.1627
-0.362852
20.3275
-0.417447
18.8438
-0.444652
14.6178
-0.442078
11.4422
-0.411218
9.02664
-0.353915
7.17181
-0.2745
5.74025
-0.186186
4.63535
-0.109445
3.78728
-0.0489462
3.07903
2.06951
-0.00611339
4.80089
-0.0312428
6.76365
-0.0480689
7.83005
-0.0762121
9.21553
-0.10376
10.6625
-0.140081
12.3151
-0.181449
14.1391
-0.229927
16.1144
-0.287405
18.2202
-0.355411
20.3955
-0.419471
18.9078
-0.460666
14.659
-0.472791
11.4543
-0.456306
9.01016
-0.415634
7.13113
-0.353667
5.67829
-0.271989
4.55367
-0.168586
3.68387
-0.0700556
2.9805
1.99945
-0.00159606
4.80249
-0.0222484
6.7843
-0.0398828
7.84768
-0.0695317
9.24518
-0.0963003
10.6892
-0.130557
12.3494
-0.170323
14.1789
-0.217921
16.162
-0.275506
18.2778
-0.346285
20.4663
-0.418356
18.9799
-0.474387
14.715
-0.507757
11.4877
-0.513421
9.01582
-0.489215
7.10693
-0.426109
5.61518
-0.324077
4.45164
-0.208351
3.56815
-0.0904596
2.86261
1.90899
0.00011326
4.80237
-0.0219073
6.80632
-0.0379456
7.86372
-0.0638631
9.2711
-0.0892777
10.7146
-0.121825
12.3819
-0.159851
14.2169
-0.205803
16.2079
-0.262604
18.3346
-0.33535
20.539
-0.414328
19.0589
-0.481908
14.7826
-0.528936
11.5347
-0.545288
9.03217
-0.535447
7.09709
-0.515262
5.59499
-0.466252
4.40263
-0.33792
3.43981
-0.143912
2.6686
1.76508
-0.00225234
4.80463
-0.0198184
6.82389
-0.0360643
7.87997
-0.0597645
9.2948
-0.0833604
10.7382
-0.114154
12.4127
-0.150203
14.2529
-0.194758
16.2525
-0.251288
18.3911
-0.325659
20.6134
-0.409296
19.1425
-0.486493
14.8598
-0.553262
11.6015
-0.604165
9.08308
-0.628398
7.12132
-0.61318
5.57978
-0.562114
4.35157
-0.480439
3.35814
-0.292937
2.4811
1.47215
0.000203069
4.80442
-0.0141181
6.83821
-0.0328336
7.89868
-0.0575194
9.31949
-0.0809055
10.7616
-0.111841
12.4436
-0.149121
14.2902
-0.196246
16.2996
-0.257283
18.4521
-0.339564
20.6957
-0.436695
19.2397
-0.533136
14.9562
-0.621696
11.69
-0.688822
9.1502
-0.725301
7.1578
-0.751873
5.60635
-0.807067
4.40676
-0.911643
3.46272
-0.993933
2.56339
1.51107
-1.03286
-0.00328706
4.80771
-0.0207937
6.85572
-0.0304857
7.90838
-0.0521854
9.34119
-0.0751547
10.7846
-0.106779
12.4753
-0.143877
14.3273
-0.191133
16.3469
-0.253488
18.5145
-0.340279
20.7824
-0.447691
19.3471
-0.560799
15.0693
-0.677015
11.8063
-0.799206
9.27239
-0.930503
7.2891
-1.05509
5.73094
-1.15887
4.51054
-1.19227
3.49612
-1.08392
2.45503
1.56713
-1.13997
0.00453753
4.80317
-0.011767
6.87202
-0.0301151
7.92672
-0.0493156
9.36039
-0.0724025
10.8077
-0.102759
12.5056
-0.138326
14.3629
-0.18542
16.394
-0.249226
18.5783
-0.34061
20.8738
-0.457658
19.4641
-0.587275
15.1989
-0.728327
11.9473
-0.870626
9.41469
-1.00538
7.42385
-1.14505
5.8706
-1.27197
4.63746
-1.32893
3.55307
-1.34032
2.46643
1.74497
-1.51816
-0.00307823
4.80625
-0.0141398
6.88308
-0.0331208
7.94571
-0.049541
9.37681
-0.0718644
10.83
-0.0968882
12.5306
-0.131618
14.3976
-0.178727
16.4411
-0.243593
18.6431
-0.338422
20.9687
-0.463055
19.5888
-0.604652
15.3405
-0.76491
12.1076
-0.946493
9.59627
-1.14527
7.62264
-1.32704
6.05237
-1.46587
4.77628
-1.5494
3.63661
-1.6131
2.53013
1.91201
-1.78015
-0.00285835
4.80911
-0.00676963
6.88699
-0.0245959
7.96353
-0.0417281
9.39394
-0.0640175
10.8523
-0.0897544
12.5564
-0.125219
14.4331
-0.171785
16.4876
-0.237012
18.7084
-0.334518
21.0662
-0.466032
19.7203
-0.619287
15.4938
-0.798109
12.2864
-0.991383
9.78955
-1.17941
7.81067
-1.35103
6.224
-1.49955
4.9248
-1.5833
3.72036
-1.70905
2.65588
2.11105
-1.90809
0.00131025
4.8078
-0.0165948
6.9049
-0.0215516
7.96849
-0.036997
9.40938
-0.0585722
10.8739
-0.088212
12.586
-0.122898
14.4678
-0.168953
16.5337
-0.234691
18.7741
-0.334463
21.1659
-0.470942
19.8567
-0.629756
15.6526
-0.815983
12.4726
-1.02462
9.99818
-1.25527
8.04132
-1.50643
6.47515
-1.71282
5.13119
-1.85208
3.85962
-2.05495
2.85875
2.31059
-2.25449
0.00789068
4.79991
-0.0117271
6.92452
-0.0233306
7.98009
-0.0439064
9.42996
-0.0630465
10.893
-0.0902307
12.6132
-0.123772
14.5013
-0.170352
16.5803
-0.236836
18.8406
-0.338374
21.2675
-0.478344
19.9967
-0.640454
15.8147
-0.831552
12.6637
-1.05535
10.222
-1.28425
8.27021
-1.48456
6.67546
-1.67536
5.32199
-1.88603
4.07029
-2.13331
3.10603
2.56607
-2.38879
-5.02482e-05
4.79996
-0.010842
6.93531
-0.0261274
7.99538
-0.0447896
9.44862
-0.0642586
10.9125
-0.0899139
12.6389
-0.124605
14.536
-0.171427
16.6271
-0.238225
18.9074
-0.340636
21.3699
-0.482429
20.1385
-0.647736
15.98
-0.840752
12.8567
-1.07555
10.4568
-1.33643
8.5311
-1.6105
6.94953
-1.90135
5.61284
-2.27712
4.44606
-2.71184
3.54075
2.89971
-3.04548
-0.00704828
4.80701
-0.0125406
6.9408
-0.0221198
8.00496
-0.0390926
9.46559
-0.0625889
10.936
-0.0909382
12.6672
-0.126129
14.5712
-0.172571
16.6735
-0.239392
18.9742
-0.34122
21.4717
-0.48113
20.2784
-0.647173
16.1461
-0.827882
13.0374
-1.0504
10.6793
-1.3309
8.81159
-1.61845
7.23709
-1.85168
5.84606
-2.28588
4.88026
-2.92209
4.17697
3.15695
-3.17933
0.0020347
4.80497
-0.0107908
6.95363
-0.0267535
8.02092
-0.043885
9.48273
-0.0663707
10.9585
-0.0934591
12.6943
-0.126922
14.6046
-0.173039
16.7197
-0.238906
19.0401
-0.3388
21.5716
-0.473814
20.4134
-0.638387
16.3106
-0.821118
13.2202
-1.02074
10.8789
-1.27676
9.06761
-1.63206
7.59239
-2.11212
6.32612
-2.61801
5.38615
-3.35419
4.91315
4.06116
-4.25839
0.000526798
4.80445
-0.0123495
6.9665
-0.0309769
8.03955
-0.048198
9.49995
-0.0687287
10.979
-0.09398
12.7195
-0.126513
14.6372
-0.171191
16.7643
-0.233427
19.1023
-0.327232
21.6654
-0.449684
20.5359
-0.595909
16.4569
-0.761139
13.3854
-0.93608
11.0539
-1.13902
9.27055
-1.44566
7.89903
-1.91694
6.7974
-2.24223
5.71144
-1.60444
4.27536
2.45671
-0.00657455
4.81102
-0.0132288
6.97316
-0.0270442
8.05336
-0.044253
9.51716
-0.0678654
11.0026
-0.0948679
12.7465
-0.128813
14.6711
-0.174328
16.8099
-0.237881
19.1659
-0.333213
21.7607
-0.452909
20.6556
-0.58519
16.5892
-0.74391
13.5441
-0.895788
11.2057
-1.04133
9.41609
-1.11529
7.97299
-1.09955
6.78166
-1.04631
5.6582
-0.812016
4.04106
1.6447
-0.000863442
4.81188
-0.0119755
6.98427
-0.0280964
8.06948
-0.0452846
9.53434
-0.0691322
11.0264
-0.0945365
12.7719
-0.128272
14.7049
-0.174072
16.8557
-0.237681
19.2295
-0.331422
21.8545
-0.446955
20.7711
-0.556639
16.6988
-0.67211
13.6596
-0.77573
11.3094
-0.840512
9.48088
-0.790561
7.92304
-0.674132
6.66523
-0.622765
5.60684
-0.547374
3.96567
1.09732
-0.00143778
4.81332
-0.0150795
6.99791
-0.0317109
8.08611
-0.0470273
9.54966
-0.0677345
11.0472
-0.0914897
12.7957
-0.125081
14.7384
-0.170959
16.9015
-0.233027
19.2915
-0.321141
21.9426
-0.426115
20.8761
-0.506828
16.7796
-0.552022
13.7048
-0.585188
11.3425
-0.558484
9.45417
-0.556489
7.92104
-0.459677
6.56842
-0.350951
5.49811
-0.136655
3.75138
0.96067
-0.00358471
4.81691
-0.0147941
7.00912
-0.0270148
8.09833
-0.0420831
9.56473
-0.0638467
11.0689
-0.0867697
12.8186
-0.119937
14.7716
-0.164478
16.9461
-0.223083
19.3502
-0.301683
22.0212
-0.386253
20.9607
-0.436031
16.8293
-0.439731
13.7085
-0.399087
11.3019
-0.275904
9.33099
-0.192628
7.83777
-0.146796
6.52259
0.0408513
5.31046
0.207352
3.58488
1.16802
-0.000823198
4.81773
-0.0118294
7.02013
-0.0242986
8.1108
-0.0394369
9.57987
-0.0608093
11.0903
-0.0795161
12.8373
-0.111011
14.8031
-0.152204
16.9873
-0.206013
19.404
-0.273918
22.0891
-0.332345
21.0191
-0.356753
16.8537
-0.328174
13.6799
-0.243994
11.2177
-0.114084
9.20108
0.0515393
7.67214
0.240194
6.33393
0.393657
5.157
0.385179
3.59335
1.5532
0.000873865
4.81686
-0.00967668
7.03068
-0.0215336
8.12266
-0.0348164
9.59315
-0.0503819
11.1059
-0.0657715
12.8527
-0.0963352
14.8337
-0.134101
17.025
-0.18277
19.4526
-0.240656
22.147
-0.278128
21.0566
-0.283361
16.859
-0.243558
13.6401
-0.15635
11.1305
-0.0287133
9.07344
0.139217
7.50421
0.346242
6.12691
0.516796
4.98644
0.421658
3.68849
1.97486
0.00117365
4.81568
-0.00509547
7.03695
-0.0137448
8.13131
-0.0221498
9.60155
-0.0324955
11.1162
-0.0504066
12.8706
-0.0789387
14.8622
-0.112108
17.0582
-0.154362
19.4949
-0.201602
22.1942
-0.226478
21.0814
-0.215363
16.8479
-0.173679
13.5984
-0.0854949
11.0423
0.0216275
8.96632
0.178644
7.3472
0.298074
6.00748
0.390244
4.89427
0.298825
3.77991
2.27368
0.00784639
4.80784
0.00556525
7.03923
-0.000397198
8.13727
-0.00819682
9.60935
-0.0171518
11.1252
-0.0357146
12.8892
-0.0595653
14.8861
-0.085322
17.084
-0.120101
19.5297
-0.156049
22.2302
-0.171792
21.0972
-0.148051
16.8241
-0.0943117
13.5447
-0.0196485
10.9676
0.0313553
8.91532
0.142874
7.23568
0.219055
5.9313
0.27896
4.83437
0.215453
3.84342
2.48914
0.00929308
4.79854
0.0101234
7.0384
0.00756575
8.13983
0.00297364
9.61395
-0.000227145
11.1284
-0.0194449
12.9084
-0.0338631
14.9005
-0.0510886
17.1012
-0.0787206
19.5573
-0.104046
22.2555
-0.111218
21.1043
-0.0846316
16.7975
-0.0300107
13.4901
0.0213107
10.9163
0.0288535
8.90777
0.092834
7.1717
0.145375
5.87875
0.188679
4.79106
0.150409
3.88169
2.63955
0.013619
4.78492
0.0184512
7.03356
0.0217868
8.13649
0.0222807
9.61345
0.0286457
11.122
0.0100615
12.927
0.00861327
14.9019
-0.0106961
17.1205
-0.029314
19.5759
-0.046466
22.2727
-0.0487309
21.1066
-0.0311312
16.7799
0.00270719
13.4562
0.0354127
10.8836
0.0457711
8.89741
0.0697809
7.14769
0.0941404
5.8544
0.106865
4.77834
0.0821637
3.90639
2.72171
0.0152288
4.76969
0.0264745
7.02232
0.0366937
8.12628
0.0401353
9.61001
0.0554531
11.1067
0.0558599
12.9266
0.0553865
14.9024
0.0499539
17.1259
0.0365869
19.5893
0.0203672
22.2889
0.0139439
21.113
0.0188696
16.775
0.030847
13.4442
0.0462781
10.8682
0.0643334
8.87936
0.0595548
7.15247
0.056482
5.85747
0.0493639
4.78546
0.0260859
3.92967
2.7478
0.0250378
4.74466
0.0426593
7.0047
0.0628482
8.10609
0.0755182
9.59734
0.0934637
11.0887
0.110236
12.9098
0.12517
14.8875
0.131086
17.12
0.129049
19.5913
0.116578
22.3013
0.0995644
21.13
0.0833675
16.7912
0.0702606
13.4573
0.0633916
10.8751
0.0754374
8.86731
0.0565936
7.17131
0.0365503
5.87751
0.0225333
4.79948
8.58982e-05
3.95211
2.74788
0.0287256
4.71593
0.0568109
6.97661
0.0887183
8.07418
0.118013
9.56805
0.150586
11.0562
0.183441
12.877
0.214231
14.8567
0.234721
17.0995
0.242189
19.5838
0.22911
22.3144
0.199669
21.1595
0.164649
16.8262
0.128906
13.4931
0.102214
10.9018
0.0957957
8.87373
0.0636745
7.20343
0.041801
5.89938
0.0104771
4.8308
-0.000730089
3.96332
2.74715
0.0458495
4.67008
0.0863103
6.93615
0.12778
8.03271
0.177412
9.51841
0.226391
11.0072
0.28121
12.8221
0.329974
14.8079
0.367604
17.0619
0.385175
19.5663
0.372048
22.3275
0.328521
21.203
0.273269
16.8815
0.215659
13.5507
0.166623
10.9508
0.135042
8.90531
0.0896634
7.24881
0.0559807
5.93307
0.0189018
4.86788
-0.00382051
3.98604
2.74333
0.0570882
4.61299
0.114828
6.87841
0.189015
7.95852
0.265676
9.44175
0.338414
10.9344
0.421278
12.7393
0.491581
14.7376
0.546272
17.0072
0.572843
19.5397
0.556803
22.3436
0.49552
21.2643
0.415762
16.9612
0.332235
13.6342
0.256198
11.0268
0.195959
8.96555
0.135727
7.30904
0.0872024
5.98159
0.0443951
4.91069
0.013343
4.0171
2.75667
0.0922798
4.52071
0.192135
6.77856
0.28155
7.86911
0.386138
9.33716
0.485626
10.8349
0.5972
12.6277
0.695585
14.6392
0.774126
16.9287
0.816214
19.4976
0.801624
22.3582
0.724443
21.3415
0.61859
17.0671
0.505249
13.7476
0.397593
11.1345
0.304104
9.05904
0.219394
7.39375
0.147245
6.05374
0.0873093
4.97062
0.0361791
4.06823
2.79285
0.129946
4.39077
0.26774
6.64076
0.410487
7.72636
0.570387
9.17726
0.711038
10.6943
0.857674
12.4811
0.988418
14.5085
1.09339
16.8237
1.15252
19.4385
1.13875
22.3719
1.0417
21.4385
0.901863
17.2069
0.746441
13.903
0.592152
11.2888
0.450195
9.201
0.323382
7.52056
0.215332
6.16179
0.127018
5.05894
0.0551837
4.14006
2.84804
0.215071
4.1757
0.43014
6.42569
0.620807
7.53569
0.817825
8.98025
1.00419
10.5079
1.19833
12.2869
1.37093
14.3359
1.50945
16.6852
1.59313
19.3548
1.59011
22.375
1.48328
21.5454
1.31675
17.3735
1.12314
14.0966
0.92276
11.4891
0.728626
9.39513
0.547306
7.70188
0.382642
6.32645
0.238275
5.2033
0.112183
4.26615
2.96022
0.362649
3.81305
0.687335
6.10101
0.92572
7.29731
1.19189
8.71407
1.44202
10.2578
1.68244
12.0465
1.89832
14.12
2.07991
16.5036
2.20279
19.2319
2.22632
22.3514
2.12211
21.6496
1.93625
17.5593
1.70539
14.3275
1.45173
11.7428
1.1897
9.65716
0.928889
7.96269
0.67647
6.57887
0.438204
5.44157
0.216113
4.48824
3.17633
0.253993
3.55906
0.557786
5.79721
0.838086
7.01701
1.15373
8.39843
1.42675
9.98479
1.65606
11.8172
1.83273
13.9433
1.94496
16.3913
1.97427
19.2026
1.89609
22.4296
1.72193
21.8237
1.51355
17.7677
1.2967
14.5443
1.08309
11.9564
0.877994
9.86225
0.683025
8.15766
0.497767
6.76413
0.323509
5.61583
0.156618
4.65513
3.33295
0.0419658
3.51709
0.198029
5.64115
0.413211
6.80183
0.647024
8.16462
0.884677
9.74713
1.11678
11.5851
1.3209
13.7392
1.47042
16.2418
1.54157
19.1315
1.50968
22.4615
1.37783
21.9556
1.20123
17.9443
1.00881
14.7367
0.814946
12.1503
0.62796
10.0492
0.453975
8.33165
0.298538
6.91957
0.163173
5.75119
0.0618773
4.75643
3.39483
0.0232947
3.49379
0.144016
5.52043
0.269893
6.67595
0.421788
8.01272
0.59518
9.57374
0.776191
11.4041
0.950431
13.565
1.095
16.0973
1.1824
19.0441
1.18259
22.4613
1.08724
22.0509
0.9431
18.0884
0.781327
14.8985
0.6196
12.312
0.468825
10.2
0.335398
8.46508
0.221687
7.03328
0.124907
5.84797
0.0444459
4.83689
3.43928
-0.0105569
3.50435
0.0862002
5.42367
0.198154
6.564
0.320187
7.89069
0.451606
9.44232
0.584491
11.2712
0.714772
13.4347
0.830204
15.9818
0.908751
18.9655
0.921542
22.4485
0.853517
22.119
0.741435
18.2005
0.614315
15.0256
0.488785
12.4375
0.373299
10.3155
0.270677
8.5677
0.180448
7.12351
0.10022
5.9282
0.0313928
4.90572
3.47067
-0.0266449
3.531
0.0425787
5.35445
0.130056
6.47652
0.230524
7.79022
0.339995
9.33285
0.449519
11.1617
0.553891
13.3303
0.645437
15.8903
0.709404
18.9016
0.723623
22.4343
0.673806
22.1688
0.587787
18.2865
0.489023
15.1244
0.39045
12.5361
0.298036
10.4079
0.214021
8.65171
0.139229
7.1983
0.0737849
5.99364
0.0193545
4.96015
3.49002
-0.0190278
3.55002
0.0288719
5.30655
0.0867199
6.41867
0.161211
7.71573
0.246782
9.24728
0.336495
11.072
0.424497
13.2423
0.502174
15.8126
0.556921
18.8468
0.571473
22.4198
0.53421
22.206
0.466831
18.3539
0.388016
15.2032
0.308299
12.6158
0.233146
10.4831
0.16529
8.71957
0.10594
7.25765
0.0553893
6.0442
0.0136783
5.00186
3.5037
-0.00929236
3.55932
0.0265774
5.27068
0.0673753
6.37787
0.121519
7.66159
0.184379
9.18442
0.252923
11.0034
0.323498
13.1717
0.388402
15.7477
0.436039
18.7992
0.451157
22.4046
0.423245
22.234
0.369769
18.4074
0.306431
15.2665
0.242381
12.6799
0.182509
10.5429
0.129067
8.77301
0.0826852
7.30403
0.0433894
6.08349
0.0107284
5.03452
3.51443
-0.00342584
3.56274
0.0242233
5.24303
0.0559426
6.34615
0.0971285
7.6204
0.144214
9.13733
0.196006
10.9516
0.250456
13.1173
0.302085
15.6961
0.341613
18.7596
0.355783
22.3905
0.334767
22.255
0.292501
18.4496
0.242167
15.3169
0.191399
12.7307
0.144108
10.5902
0.101935
8.81518
0.0652389
7.34073
0.034114
6.11462
0.0082574
5.06038
3.52269
-0.00031621
3.56306
0.0205781
5.22214
0.0456659
6.32106
0.0775987
7.58847
0.113951
9.10098
0.154084
10.9115
0.196385
13.075
0.236865
15.6556
0.268539
18.728
0.28062
22.3784
0.26456