/*--------------------------------*- C++ -*----------------------------------*\
| =========                 |                                                 |
| \\      /  F ield         | OpenFOAM: The Open Source CFD Toolbox           |
|  \\    /   O peration     | Version:  2412                                  |
|   \\  /    A nd           | Website:  www.openfoam.com                      |
|    \\/     M anipulation  |                                                 |
\*---------------------------------------------------------------------------*/
FoamFile
{
    version     2.0;
    format      ascii;
    arch        "LSB;label=32;scalar=64";
    class       volVectorField;
    location    "1";
    object      U;
}
// * * * * * * * * * * * * * * * * * * * * * * * * * * * * * * * * * * * * * //

dimensions      [0 1 -1 0 0 0 0];

internalField   nonuniform List<vector> 
2200
(
(0.356871 0.0362201 0)
(1.12952 0.0276993 0)
(2.07928 0.00402671 0)
(3.11457 -0.00160097 0)
(4.28964 0.00179193 0)
(5.55783 0.0125914 0)
(6.862 0.0200235 0)
(8.12823 0.0297509 0)
(9.21035 0.0264959 0)
(9.89544 0.0130959 0)
(9.89499 -0.0115955 0)
(9.20991 -0.0258237 0)
(8.12791 -0.0290648 0)
(6.86191 -0.0195201 0)
(5.55772 -0.0121637 0)
(4.28949 -0.00147353 0)
(3.1144 0.00178129 0)
(2.07913 -0.00396376 0)
(1.12948 -0.0276775 0)
(0.356859 -0.0362454 0)
(0.600063 0.0793749 0)
(1.19905 0.184516 0)
(2.06456 0.209479 0)
(3.08522 0.16262 0)
(4.27166 0.104115 0)
(5.53655 0.0934117 0)
(6.82211 0.100471 0)
(8.06609 0.0914058 0)
(9.1619 0.0820561 0)
(9.84251 0.043277 0)
(9.84232 -0.0392502 0)
(9.1617 -0.0787235 0)
(8.06618 -0.0890565 0)
(6.82174 -0.0986474 0)
(5.53619 -0.0921597 0)
(4.27116 -0.103382 0)
(3.08473 -0.162245 0)
(2.06408 -0.209334 0)
(1.19879 -0.18446 0)
(0.600002 -0.0793572 0)
(1.18729 0.100971 0)
(1.53872 0.306399 0)
(2.16615 0.475868 0)
(3.12137 0.552545 0)
(4.3032 0.528435 0)
(5.55338 0.430164 0)
(6.85061 0.302982 0)
(8.05494 0.230428 0)
(9.07593 0.148321 0)
(9.71173 0.0443815 0)
(9.7123 -0.0381601 0)
(9.07514 -0.143207 0)
(8.05349 -0.226351 0)
(6.84923 -0.299938 0)
(5.55153 -0.427916 0)
(4.30144 -0.527177 0)
(3.1201 -0.551739 0)
(2.16514 -0.475427 0)
(1.53808 -0.306307 0)
(1.1868 -0.100882 0)
(1.97045 0.0960803 0)
(2.35186 0.353555 0)
(2.57825 0.611881 0)
(3.31186 0.817889 0)
(4.3182 0.930313 0)
(5.48443 0.924808 0)
(6.73558 0.80937 0)
(7.9599 0.572196 0)
(8.98177 0.342361 0)
(9.5861 0.135794 0)
(9.58595 -0.12839 0)
(8.97901 -0.334763 0)
(7.95668 -0.565135 0)
(6.73129 -0.803667 0)
(5.48011 -0.921367 0)
(4.31482 -0.92752 0)
(3.30902 -0.816051 0)
(2.57584 -0.610575 0)
(2.35086 -0.35252 0)
(1.96978 -0.095841 0)
(2.8017 0.0987966 0)
(3.24629 0.327164 0)
(3.3606 0.629445 0)
(3.77858 0.903844 0)
(4.44933 1.10196 0)
(5.442 1.16399 0)
(6.51791 1.12701 0)
(7.75815 0.937299 0)
(8.84883 0.603392 0)
(9.44607 0.232129 0)
(9.44503 -0.219913 0)
(8.84527 -0.593149 0)
(7.75321 -0.9285 0)
(6.5115 -1.11968 0)
(5.43476 -1.15798 0)
(4.44404 -1.09772 0)
(3.77367 -0.900931 0)
(3.35772 -0.627837 0)
(3.2417 -0.326753 0)
(2.79652 -0.0986425 0)
(3.55384 0.0908887 0)
(4.07832 0.278617 0)
(4.14522 0.558045 0)
(4.38187 0.832053 0)
(4.77052 1.08441 0)
(5.47586 1.22034 0)
(6.37683 1.22554 0)
(7.44167 1.09642 0)
(8.47044 0.724314 0)
(9.1421 0.269059 0)
(9.14022 -0.254706 0)
(8.45889 -0.711145 0)
(7.43361 -1.08504 0)
(6.3681 -1.21697 0)
(5.46704 -1.21288 0)
(4.76129 -1.07875 0)
(4.37405 -0.827653 0)
(4.13662 -0.554803 0)
(4.07387 -0.276146 0)
(3.55075 -0.0899101 0)
(4.17293 0.071647 0)
(4.79787 0.221231 0)
(4.84957 0.452806 0)
(4.98871 0.689821 0)
(5.23019 0.933814 0)
(5.62762 1.14854 0)
(6.33424 1.21012 0)
(7.09893 1.11789 0)
(7.88989 0.785157 0)
(8.49078 0.292402 0)
(8.48855 -0.274684 0)
(7.8909 -0.7684 0)
(7.08796 -1.1016 0)
(6.3212 -1.19825 0)
(5.61582 -1.13858 0)
(5.21873 -0.925672 0)
(4.97788 -0.68383 0)
(4.84165 -0.448561 0)
(4.78397 -0.219686 0)
(4.15507 -0.0713895 0)
(4.64265 0.0501825 0)
(5.37626 0.164271 0)
(5.42523 0.341938 0)
(5.5121 0.52872 0)
(5.66829 0.731598 0)
(5.93274 0.924907 0)
(6.37046 1.06359 0)
(6.92653 0.999019 0)
(7.53494 0.760897 0)
(7.99935 0.298057 0)
(7.99469 -0.273349 0)
(7.51761 -0.740116 0)
(6.912 -0.984168 0)
(6.35455 -1.04778 0)
(5.91637 -0.912813 0)
(5.65157 -0.72226 0)
(5.49559 -0.522426 0)
(5.40588 -0.338894 0)
(5.36123 -0.162585 0)
(4.63225 -0.0486895 0)
(4.97113 0.0322399 0)
(5.8087 0.115203 0)
(5.85783 0.243676 0)
(5.91438 0.380943 0)
(6.01809 0.533331 0)
(6.19379 0.683039 0)
(6.47701 0.796439 0)
(6.86157 0.796588 0)
(7.3097 0.635271 0)
(7.67396 0.258846 0)
(7.66982 -0.232032 0)
(7.29808 -0.608251 0)
(6.84407 -0.770199 0)
(6.45813 -0.776385 0)
(6.17228 -0.667104 0)
(5.99514 -0.520783 0)
(5.89014 -0.371019 0)
(5.83526 -0.235296 0)
(5.78638 -0.109953 0)
(4.94059 -0.0306041 0)
(5.18699 0.0196588 0)
(6.11401 0.0778118 0)
(6.16331 0.167195 0)
(6.20051 0.263608 0)
(6.26929 0.371129 0)
(6.38516 0.478925 0)
(6.56854 0.562745 0)
(6.82284 0.577664 0)
(7.12665 0.475591 0)
(7.38893 0.202471 0)
(7.38256 -0.168292 0)
(7.11392 -0.442953 0)
(6.79742 -0.546648 0)
(6.54036 -0.536912 0)
(6.35576 -0.457671 0)
(6.23997 -0.355764 0)
(6.17135 -0.253246 0)
(6.13385 -0.160572 0)
(6.078 -0.0750669 0)
(5.15033 -0.0190744 0)
(5.32487 0.0118147 0)
(6.32261 0.0516264 0)
(6.37167 0.112401 0)
(6.39597 0.178477 0)
(6.44066 0.251643 0)
(6.51474 0.325079 0)
(6.63049 0.386113 0)
(6.78479 0.396102 0)
(6.99324 0.340618 0)
(7.15551 0.158369 0)
(7.14872 -0.109219 0)
(6.96835 -0.299157 0)
(6.76129 -0.366518 0)
(6.59545 -0.355767 0)
(6.47657 -0.302312 0)
(6.39962 -0.23419 0)
(6.3533 -0.165732 0)
(6.32593 -0.105859 0)
(6.27791 -0.0488791 0)
(5.28596 -0.0109155 0)
(5.41376 0.00744555 0)
(6.46337 0.0346685 0)
(6.51212 0.0758701 0)
(6.52769 0.121296 0)
(6.55609 0.171588 0)
(6.60246 0.221094 0)
(6.67417 0.265904 0)
(6.77675 0.283547 0)
(6.90202 0.243956 0)
(7.0007 0.117884 0)
(6.992 -0.0621069 0)
(6.87442 -0.189082 0)
(6.74003 -0.234174 0)
(6.63208 -0.226298 0)
(6.55456 -0.192719 0)
(6.50293 -0.149308 0)
(6.47033 -0.104275 0)
(6.45384 -0.0632745 0)
(6.41375 -0.0271688 0)
(5.3568 -0.00179615 0)
(5.47396 0.00508597 0)
(6.55999 0.0243364 0)
(6.6084 0.0526686 0)
(6.61855 0.0843408 0)
(6.63689 0.120511 0)
(6.66637 0.155327 0)
(6.71145 0.184897 0)
(6.78116 0.209217 0)
(6.83869 0.172761 0)
(6.91425 0.0846124 0)
(6.89417 -0.0216641 0)
(6.81653 -0.108752 0)
(6.72657 -0.138852 0)
(6.65436 -0.134948 0)
(6.60309 -0.114803 0)
(6.57046 -0.0883519 0)
(6.55105 -0.0601176 0)
(6.54134 -0.0335432 0)
(6.49106 -0.00974552 0)
(5.38374 -0.000132443 0)
(5.51732 0.00365069 0)
(6.62878 0.0175339 0)
(6.67712 0.0375742 0)
(6.68389 0.0596765 0)
(6.69556 0.0852636 0)
(6.71432 0.112267 0)
(6.74203 0.131389 0)
(6.77654 0.148188 0)
(6.79995 0.127218 0)
(6.85265 0.0775306 0)
(6.83433 0.0110369 0)
(6.77807 -0.0497779 0)
(6.71555 -0.0702717 0)
(6.66679 -0.0713553 0)
(6.63201 -0.0605066 0)
(6.61044 -0.0458728 0)
(6.59913 -0.0308178 0)
(6.5917 -0.0179342 0)
(6.52276 -0.00618585 0)
(5.39611 -0.00412043 0)
(5.54978 0.00303114 0)
(6.67855 0.0135126 0)
(6.72666 0.028292 0)
(6.7309 0.0447909 0)
(6.73714 0.0623064 0)
(6.74933 0.0834778 0)
(6.76471 0.0995957 0)
(6.77331 0.104364 0)
(6.79041 0.110798 0)
(6.80756 0.0928967 0)
(6.79513 0.0369551 0)
(6.74846 -0.00427674 0)
(6.70349 -0.0216302 0)
(6.66981 -0.0283296 0)
(6.64597 -0.0275647 0)
(6.62748 -0.0213588 0)
(6.6169 -0.0173357 0)
(6.60644 -0.0126623 0)
(6.53813 -0.0124848 0)
(5.42217 -0.00553268 0)
(5.57788 0.00312775 0)
(6.71683 0.0119635 0)
(6.76446 0.0241742 0)
(6.76643 0.0381671 0)
(6.76847 0.0527636 0)
(6.77309 0.0688836 0)
(6.78139 0.0862694 0)
(6.7798 0.0862609 0)
(6.79773 0.108941 0)
(6.7797 0.111573 0)
(6.76445 0.0606058 0)
(6.72279 0.0329106 0)
(6.68784 0.014424 0)
(6.66118 0.00279753 0)
(6.64241 -0.00429055 0)
(6.62845 -0.00760646 0)
(6.61745 -0.00969606 0)
(6.60485 -0.0108564 0)
(6.55633 -0.0122011 0)
(5.45861 -0.00161048 0)
(5.60589 0.0039971 0)
(6.75088 0.0132984 0)
(6.79805 0.0245879 0)
(6.79839 0.038316 0)
(6.79754 0.0531704 0)
(6.79598 0.0681695 0)
(6.79544 0.0865915 0)
(6.78693 0.0862484 0)
(6.82192 0.113816 0)
(6.7643 0.126587 0)
(6.73773 0.084503 0)
(6.6989 0.0654678 0)
(6.66779 0.0455693 0)
(6.64298 0.031052 0)
(6.62515 0.0199788 0)
(6.61408 0.0106845 0)
(6.6071 0.00379716 0)
(6.5976 -0.00245932 0)
(6.56873 -0.00133907 0)
(5.46577 0.00131526 0)
(5.64308 0.00456603 0)
(6.78803 0.0141791 0)
(6.8347 0.0271922 0)
(6.83364 0.0414778 0)
(6.83046 0.058421 0)
(6.82463 0.075413 0)
(6.81506 0.0964583 0)
(6.80471 0.103439 0)
(6.84306 0.128417 0)
(6.75842 0.139887 0)
(6.71858 0.112334 0)
(6.68 0.0969266 0)
(6.64864 0.0759098 0)
(6.62413 0.0591597 0)
(6.60661 0.0447891 0)
(6.59523 0.0322564 0)
(6.58778 0.022653 0)
(6.58664 0.0127324 0)
(6.56481 0.00912188 0)
(5.4581 0.0035922 0)
(5.68031 0.00619463 0)
(6.83044 0.0194249 0)
(6.87638 0.0329296 0)
(6.87409 0.0508537 0)
(6.86848 0.0702093 0)
(6.85871 0.0912061 0)
(6.84288 0.116052 0)
(6.83296 0.13869 0)
(6.8534 0.153786 0)
(6.75593 0.156971 0)
(6.70301 0.1467 0)
(6.65979 0.129715 0)
(6.62476 0.107043 0)
(6.59904 0.086643 0)
(6.58126 0.0680858 0)
(6.56971 0.0516418 0)
(6.56215 0.0389432 0)
(6.56432 0.0278166 0)
(6.54321 0.0187002 0)
(5.41763 0.00711592 0)
(5.74264 0.00755794 0)
(6.8831 0.0201791 0)
(6.92844 0.0406715 0)
(6.92447 0.0607012 0)
(6.91609 0.0859998 0)
(6.90226 0.113274 0)
(6.88079 0.14392 0)
(6.86111 0.176137 0)
(6.85688 0.190074 0)
(6.75806 0.189105 0)
(6.6938 0.190141 0)
(6.64107 0.168762 0)
(6.59994 0.142668 0)
(6.57084 0.116625 0)
(6.55102 0.0924827 0)
(6.53835 0.0710287 0)
(6.53073 0.0533196 0)
(6.53127 0.0397214 0)
(6.4951 0.0244574 0)
(5.35317 0.009553 0)
(5.79677 0.00925467 0)
(6.94876 0.033299 0)
(6.99193 0.0519598 0)
(6.98592 0.0814436 0)
(6.97458 0.111781 0)
(6.95573 0.146174 0)
(6.92703 0.183331 0)
(6.89283 0.222133 0)
(6.86011 0.239822 0)
(6.75889 0.242826 0)
(6.67953 0.242851 0)
(6.61237 0.216163 0)
(6.56259 0.184299 0)
(6.52797 0.151217 0)
(6.50488 0.120297 0)
(6.49066 0.0926662 0)
(6.48314 0.0689763 0)
(6.481 0.0478044 0)
(6.43103 0.0305051 0)
(5.28211 0.00839132 0)
(5.90543 0.0148751 0)
(7.03474 0.0309879 0)
(7.07857 0.0690143 0)
(7.06922 0.101865 0)
(7.05182 0.142939 0)
(7.02469 0.188256 0)
(6.98489 0.23504 0)
(6.93307 0.28113 0)
(6.87225 0.306263 0)
(6.76211 0.314304 0)
(6.6648 0.308714 0)
(6.58269 0.275262 0)
(6.52307 0.234878 0)
(6.48148 0.192299 0)
(6.45352 0.151797 0)
(6.4358 0.114687 0)
(6.4254 0.0822829 0)
(6.41939 0.0555681 0)
(6.36064 0.0269585 0)
(5.20979 0.0116015 0)
(6.00613 0.0155997 0)
(7.15307 0.0628262 0)
(7.18755 0.0929403 0)
(7.17265 0.140723 0)
(7.14738 0.193413 0)
(7.10861 0.249968 0)
(7.0527 0.307287 0)
(6.97941 0.360578 0)
(6.88993 0.392663 0)
(6.76283 0.402887 0)
(6.64216 0.389102 0)
(6.54136 0.346835 0)
(6.46849 0.296135 0)
(6.41693 0.243379 0)
(6.38151 0.19335 0)
(6.35854 0.148305 0)
(6.34467 0.107765 0)
(6.33487 0.072672 0)
(6.27121 0.0466125 0)
(5.13108 0.0105736 0)
(6.20703 0.0296696 0)
(7.29655 0.0611044 0)
(7.33803 0.128675 0)
(7.31042 0.1965 0)
(7.27027 0.266687 0)
(7.21023 0.340282 0)
(7.13011 0.410074 0)
(7.02892 0.468923 0)
(6.90753 0.504455 0)
(6.75634 0.512052 0)
(6.61026 0.487206 0)
(6.49038 0.433583 0)
(6.40339 0.370925 0)
(6.34096 0.306267 0)
(6.29704 0.243699 0)
(6.26706 0.185173 0)
(6.24791 0.133402 0)
(6.23319 0.0851746 0)
(6.1545 0.0398968 0)
(5.00082 0.0191083 0)
(6.40338 0.0457668 0)
(7.53241 0.132087 0)
(7.53349 0.211399 0)
(7.48923 0.289856 0)
(7.4189 0.380704 0)
(7.32844 0.470281 0)
(7.21735 0.54597 0)
(7.08335 0.60686 0)
(6.92829 0.640764 0)
(6.74898 0.640754 0)
(6.57563 0.602717 0)
(6.43455 0.536079 0)
(6.33082 0.460552 0)
(6.25427 0.384008 0)
(6.19807 0.310945 0)
(6.15705 0.242587 0)
(6.12736 0.179357 0)
(6.10594 0.127399 0)
(6.03077 0.0781604 0)
(4.89798 0.0208973 0)
(6.99892 0.112597 0)
(7.78653 0.199718 0)
(7.78852 0.320116 0)
(7.69291 0.450864 0)
(7.58178 0.568466 3.87541e-33)
(7.45402 0.656916 -2.39291e-33)
(7.30328 0.733168 0)
(7.13011 0.788995 0)
(6.93753 0.812911 0)
(6.72532 0.798226 0)
(6.52216 0.742154 0)
(6.35836 0.659182 0)
(6.23695 0.570106 0)
(6.14554 0.482055 0)
(6.07654 0.398045 0)
(6.02477 0.319626 0)
(5.98537 0.24402 0)
(5.94889 0.164857 0)
(5.83656 0.0933333 0)
(4.61404 0.0463233 0)
(7.4091 0.281163 -2.76067e-19)
(8.16694 0.371416 2.45389e-19)
(8.04873 0.590657 0)
(7.90098 0.737301 7.81451e-20)
(7.74953 0.826357 -6.29501e-20)
(7.57773 0.90795 2.53783e-33)
(7.38234 0.977234 0)
(7.16775 1.01924 2.15243e-19)
(6.93625 1.02642 -7.60632e-19)
(6.68817 0.992856 1.65538e-19)
(6.45344 0.917612 0)
(6.26422 0.819379 -5.25669e-19)
(6.12071 0.718614 -6.57283e-19)
(6.00888 0.620846 1.15664e-18)
(5.91984 0.528001 -9.29649e-19)
(5.8475 0.441949 0)
(5.78768 0.36815 -3.59413e-19)
(5.73076 0.301664 0)
(5.57259 0.19951 -2.0034e-18)
(4.35673 0.150104 2.17096e-18)
(7.69313 0.634453 -1.19802e-19)
(8.44019 0.838929 -1.95976e-18)
(8.28068 0.988532 5.27484e-19)
(8.09578 1.06195 5.71784e-19)
(7.90198 1.13439 -1.16985e-19)
(7.68239 1.209 2.2846e-19)
(7.44359 1.2648 0)
(7.19016 1.28911 0)
(6.92083 1.27967 1.20738e-18)
(6.63521 1.22984 0)
(6.3644 1.14027 1.83847e-18)
(6.1429 1.03333 5.72293e-19)
(5.97039 0.929333 1.98031e-20)
(5.83136 0.833369 -1.31217e-18)
(5.71598 0.747636 0)
(5.61797 0.67143 0)
(5.53347 0.602919 -6.194e-18)
(5.45733 0.561353 1.57164e-17)
(5.33275 0.515147 -9.31317e-18)
(4.21548 0.344171 -1.01727e-17)
(7.80935 0.977524 2.6949e-18)
(8.62899 1.42722 -8.95402e-19)
(8.47042 1.44635 -2.20661e-19)
(8.25884 1.44851 -1.06233e-18)
(8.01795 1.49444 5.72399e-19)
(7.75216 1.54932 -4.43144e-19)
(7.47623 1.57718 3.12351e-19)
(7.18839 1.57709 0)
(6.88439 1.54803 -2.51871e-18)
(6.5648 1.48053 2.70836e-18)
(6.26189 1.37712 -5.02164e-18)
(6.01319 1.26309 2.437e-18)
(5.81878 1.15826 -1.78234e-18)
(5.66202 1.06629 3.91263e-18)
(5.53291 0.988276 0)
(5.42519 0.923627 -1.52778e-18)
(5.33443 0.864563 0)
(5.25395 0.797188 8.9169e-18)
(5.14649 0.820956 -2.12812e-17)
(4.15199 0.536394 1.20677e-17)
(7.84083 1.29068 -1.31615e-17)
(8.70479 1.9733 6.1381e-18)
(8.57862 1.87632 8.75093e-19)
(8.34777 1.86535 0)
(8.07447 1.8981 4.53999e-19)
(7.78178 1.9155 -4.36342e-19)
(7.4823 1.90542 -3.72196e-19)
(7.16688 1.87778 0)
(6.83453 1.82618 1.78226e-18)
(6.48822 1.73862 -1.86522e-18)
(6.16127 1.62011 4.3759e-18)
(5.89426 1.49784 0)
(5.68758 1.39032 -3.72789e-18)
(5.5234 1.29891 2.06771e-18)
(5.39091 1.22265 5.56595e-18)
(5.28282 1.16199 -4.88568e-18)
(5.19203 1.11775 8.13994e-18)
(5.12017 1.02131 -1.8159e-17)
(5.01391 1.08407 1.15907e-17)
(4.10014 0.728637 -1.35778e-17)
(7.8267 1.61907 8.71204e-18)
(8.71088 2.46878 -6.71509e-18)
(8.62892 2.26429 2.6105e-18)
(8.36264 2.28606 -3.55759e-18)
(8.07208 2.29995 2.19131e-18)
(7.77436 2.28049 -2.59311e-19)
(7.46408 2.23645 1.16165e-19)
(7.12894 2.18359 -1.3611e-18)
(6.77655 2.10784 -1.80956e-18)
(6.41064 1.99851 -3.99396e-18)
(6.06585 1.86326 -9.41625e-18)
(5.78608 1.7306 -3.12058e-18)
(5.5719 1.61768 1.1996e-19)
(5.40393 1.52369 -7.30089e-18)
(5.27005 1.446 -2.54865e-19)
(5.16209 1.38394 7.11773e-18)
(5.0703 1.35157 -2.20121e-18)
(5.00696 1.23966 -1.31174e-18)
(4.89568 1.31703 0)
(4.03858 0.916283 2.9017e-17)
(7.78676 1.96293 0)
(8.66754 2.91631 1.78385e-18)
(8.60245 2.6342 0)
(8.3104 2.69468 -4.71798e-19)
(8.02454 2.67949 -2.58981e-18)
(7.73682 2.62341 3.59942e-19)
(7.41997 2.55812 3.02311e-19)
(7.07192 2.48468 2.38773e-18)
(6.70696 2.38549 -1.07572e-18)
(6.32657 2.25446 1.79682e-18)
(5.96783 2.10141 5.06552e-18)
(5.67818 1.95653 6.89234e-18)
(5.45833 1.83609 -4.27013e-18)
(5.28745 1.73751 7.89153e-18)
(5.15241 1.65671 -6.32699e-18)
(5.04471 1.59034 0)
(4.95085 1.56512 -1.68986e-17)
(4.89563 1.44377 2.27085e-17)
(4.77874 1.52702 1.73231e-18)
(3.96806 1.08946 -3.04143e-17)
(7.7375 2.28458 -9.90528e-19)
(8.59384 3.33748 -5.42678e-18)
(8.57246 2.97447 -1.383e-17)
(8.23003 3.07922 7.30425e-18)
(7.96237 3.02131 -1.31793e-18)
(7.67992 2.94224 6.07843e-19)
(7.35357 2.86557 2.81464e-19)
(6.99743 2.77366 -3.83862e-19)
(6.62461 2.65265 -3.94511e-18)
(6.23348 2.50135 1.89517e-20)
(5.86423 2.33063 -5.49107e-18)
(5.56717 2.1727 -7.30714e-18)
(5.34326 2.04342 4.79696e-18)
(5.17059 1.9388 -2.83176e-18)
(5.03527 1.85373 6.86119e-18)
(4.92874 1.78184 0)
(4.83286 1.75852 -1.04295e-17)
(4.78623 1.63319 1.54278e-17)
(4.66296 1.71248 3.01494e-17)
(3.88948 1.25125 -3.22475e-17)
(7.6828 2.58784 -2.54528e-17)
(8.50235 3.7422 1.22063e-17)
(8.49279 3.3194 8.65852e-18)
(8.13394 3.45385 -7.67406e-18)
(7.89406 3.33791 4.31988e-19)
(7.60943 3.24462 1.65267e-18)
(7.27099 3.15734 -4.3945e-19)
(6.91116 3.04665 -9.80656e-19)
(6.53336 2.90663 -2.44561e-18)
(6.1346 2.73746 4.06874e-18)
(5.75758 2.54992 5.25664e-18)
(5.45483 2.3786 1.14799e-17)
(5.22792 2.23947 0)
(5.05427 2.12748 2.06438e-19)
(4.91932 2.03711 -1.89993e-17)
(4.81428 1.96014 4.35625e-18)
(4.71782 1.93229 2.22807e-17)
(4.67717 1.81008 -6.4862e-18)
(4.55071 1.87688 1.45224e-17)
(3.80326 1.39975 -8.03873e-19)
(7.63358 2.85976 1.17989e-18)
(8.39569 4.10562 1.12576e-17)
(8.43281 3.62162 6.33476e-18)
(8.03264 3.79566 -1.32356e-17)
(7.8225 3.62826 7.95216e-18)
(7.52659 3.53318 -2.06439e-18)
(7.18013 3.43605 3.92103e-19)
(6.82073 3.30603 2.42956e-18)
(6.43859 3.14875 4.41654e-18)
(6.03348 2.96262 -5.14293e-18)
(5.64972 2.75877 0)
(5.34182 2.574 -4.48925e-18)
(5.11225 2.42433 5.15001e-18)
(4.9379 2.30394 6.89336e-18)
(4.80357 2.20717 -3.94498e-18)
(4.70006 2.12559 -9.9872e-18)
(4.60492 2.09008 -3.025e-18)
(4.56739 1.97119 -3.51502e-20)
(4.44197 2.02705 0)
(3.71277 1.52976 0)
(7.57515 3.09088 -1.24734e-17)
(8.2757 4.47333 0)
(8.34762 3.91781 7.14019e-18)
(7.9299 4.12898 -3.43236e-18)
(7.74784 3.89724 -7.98914e-18)
(7.43233 3.80799 2.27012e-18)
(7.08428 3.69719 3.2527e-19)
(6.72614 3.54865 -1.41058e-18)
(6.34034 3.37652 3.06891e-18)
(5.93074 3.17573 -2.02126e-18)
(5.54146 2.95751 2.97318e-18)
(5.2287 2.75981 1.39784e-17)
(4.99625 2.59905 5.09047e-19)
(4.82098 2.46915 -7.01461e-18)
(4.68724 2.36457 1.35289e-17)
(4.58522 2.27741 1.81253e-19)
(4.49178 2.23433 3.23714e-18)
(4.45749 2.1136 -1.58549e-17)
(4.33181 2.16568 1.63706e-17)
(3.62297 1.63988 -1.65873e-17)
(7.50281 3.35012 9.93935e-22)
(8.16794 4.7858 0)
(8.25551 4.18041 0)
(7.82384 4.42829 2.82746e-18)
(7.66155 4.15198 3.17892e-18)
(7.33016 4.06758 -1.54165e-18)
(6.9875 3.9409 2.78579e-19)
(6.63098 3.77763 0)
(6.24274 3.59347 -4.80291e-18)
(5.82935 3.37939 7.53557e-18)
(5.43422 3.14725 8.88822e-18)
(5.11576 2.93652 -5.24628e-18)
(4.87947 2.76412 -6.54172e-18)
(4.70244 2.62383 1.54321e-17)
(4.56882 2.5104 -4.77846e-18)
(4.46802 2.41692 -5.80868e-18)
(4.37655 2.36642 -3.53829e-18)
(4.34677 2.24143 -1.71387e-17)
(4.21948 2.29243 2.23891e-18)
(3.53191 1.73504 1.75601e-17)
(7.43647 3.53028 -4.92842e-18)
(8.03953 5.09295 -6.58443e-18)
(8.15824 4.43249 8.87423e-19)
(7.7116 4.7066 1.87027e-19)
(7.56974 4.38661 7.97293e-19)
(7.22609 4.31086 -4.3329e-18)
(6.89027 4.16857 0)
(6.5337 3.99217 1.0588e-18)
(6.14346 3.79607 -8.33226e-19)
(5.72732 3.56973 1.22039e-17)
(5.32743 3.32609 -2.21046e-18)
(5.00337 3.10439 2.42894e-18)
(4.76239 2.92105 0)
(4.58262 2.76973 -8.41469e-18)
(4.44849 2.64579 1.0439e-17)
(4.34876 2.54362 0)
(4.25867 2.48476 -7.80246e-18)
(4.23507 2.35284 2.2749e-17)
(4.10154 2.40085 2.77366e-18)
(3.43825 1.81773 -2.16657e-17)
(7.34423 3.7821 -1.01552e-17)
(7.94579 5.35608 1.23429e-17)
(8.04916 4.6605 0)
(7.60293 4.95651 6.87748e-18)
(7.47298 4.60553 0)
(7.12023 4.53544 3.82201e-18)
(6.79208 4.37787 0)
(6.4363 4.19133 0)
(6.04673 3.98618 -1.63489e-18)
(5.62949 3.7511 -1.17938e-17)
(5.22487 3.4985 -1.65252e-17)
(4.89377 3.26672 3.01053e-18)
(4.64603 3.07226 1.11293e-17)
(4.46112 2.90897 9.40092e-18)
(4.3243 2.77339 -3.34149e-17)
(4.2239 2.66185 -1.38868e-17)
(4.13554 2.59235 8.03215e-18)
(4.11681 2.45769 0)
(3.98253 2.49694 2.41282e-17)
(3.34256 1.88611 -2.30647e-17)
(7.27513 3.93745 1.12998e-17)
(7.81207 5.60037 -1.34737e-17)
(7.94439 4.88583 0)
(7.49763 5.18817 -3.48061e-19)
(7.37524 4.81168 -2.75662e-18)
(7.01873 4.7448 0)
(6.69723 4.57382 1.71422e-20)
(6.34197 4.37912 1.06658e-18)
(5.95254 4.16532 -2.55787e-18)
(5.53326 3.92146 1.3332e-18)
(5.12376 3.66049 0)
(4.78536 3.42042 1.20285e-17)
(4.52977 3.21692 3.71412e-20)
(4.33819 3.04261 5.0768e-18)
(4.19745 2.8938 6.16787e-18)
(4.09638 2.76876 0)
(4.01063 2.68468 -1.36626e-17)
(3.99884 2.54431 2.6775e-17)
(3.85899 2.57287 -2.93663e-17)
(3.24364 1.943 4.97285e-17)
(7.17328 4.15136 0)
(7.73018 5.83355 0)
(7.83992 5.08888 -6.83533e-18)
(7.39188 5.39866 0)
(7.27761 5.0052 0)
(6.91919 4.93817 5.28681e-18)
(6.60202 4.7548 -3.35686e-20)
(6.24737 4.55215 5.69017e-19)
(5.85942 4.33043 -4.2669e-19)
(5.44063 4.08034 0)
(5.02839 3.81508 -2.60071e-18)
(4.68275 3.57041 -9.93352e-18)
(4.41771 3.35987 -1.2349e-17)
(4.21608 3.17501 -5.08921e-18)
(4.06633 3.01284 6.72382e-18)
(3.95893 2.87493 -1.59612e-17)
(3.87176 2.77278 2.94283e-17)
(3.8548 2.62914 5.15874e-19)
(3.71837 2.63923 -2.80271e-17)
(3.13483 1.98444 -3.38866e-18)
(7.09513 4.30665 0)
(7.60817 6.0163 -9.69091e-18)
(7.73685 5.28217 7.69546e-18)
(7.29098 5.59058 0)
(7.18226 5.18439 0)
(6.82167 5.11678 -1.16288e-17)
(6.50986 4.92327 0)
(6.15778 4.71449 0)
(5.77264 4.48656 -5.45943e-18)
(5.35408 4.23154 2.25055e-18)
(4.93771 3.96286 -2.15994e-17)
(4.58328 3.71467 0)
(4.30669 3.49929 -1.31699e-17)
(4.09277 3.30734 4.45395e-19)
(3.93244 3.13224 -2.10892e-17)
(3.81825 2.97338 8.65272e-18)
(3.73534 2.84859 2.30983e-19)
(3.73225 2.6936 -3.18181e-17)
(3.59223 2.67865 1.52881e-17)
(3.01637 2.01375 3.5924e-18)
(7.00213 4.47236 0)
(7.51438 6.22444 -1.12465e-17)
(7.63368 5.46681 8.04138e-18)
(7.19325 5.77035 1.50293e-17)
(7.08659 5.35296 2.83019e-18)
(6.72805 5.28215 -1.50063e-18)
(6.42107 5.07954 9.52138e-19)
(6.07086 4.86468 1.70769e-18)
(5.68738 4.63033 5.84916e-18)
(5.26883 4.37078 1.55763e-17)
(4.85021 4.10063 1.79554e-17)
(4.48965 3.85241 3.30974e-18)
(4.20297 3.63517 1.91496e-17)
(3.97559 3.43724 1.21774e-17)
(3.79901 3.25277 1.52112e-17)
(3.66807 3.08165 -9.4701e-18)
(3.56555 2.93795 -1.17094e-17)
(3.5252 2.76851 1.38139e-17)
(3.40406 2.69999 -8.52573e-18)
(2.88397 2.02168 1.17387e-17)
(6.90611 4.6191 1.74339e-17)
(7.41304 6.37662 1.78815e-17)
(7.53613 5.63143 4.27552e-18)
(7.09718 5.93056 2.72407e-19)
(6.99515 5.51054 -1.00342e-17)
(6.63882 5.43509 3.45484e-18)
(6.33484 5.22442 -1.0827e-18)
(5.98672 5.0041 -3.49983e-19)
(5.60614 4.76463 -6.7314e-18)
(5.19002 4.50217 -1.71515e-17)
(4.77109 4.23232 1.16191e-18)
(4.40408 3.98671 0)
(4.10411 3.77213 0)
(3.85838 3.57695 -6.23826e-18)
(3.6604 3.39109 -2.42815e-17)
(3.50773 3.20338 2.03328e-17)
(3.40378 3.02168 1.26007e-17)
(3.38239 2.82081 0)
(3.25319 2.74066 2.71938e-17)
(2.72944 2.00384 -1.31287e-17)
(6.82231 4.7523 -8.74347e-18)
(7.31607 6.5398 7.29716e-18)
(7.44904 5.79558 -9.64634e-18)
(7.00863 6.08448 -9.46633e-18)
(6.90785 5.65704 -3.91757e-18)
(6.55157 5.57632 1.02354e-18)
(6.25075 5.35852 0)
(5.90602 5.13316 -2.11238e-18)
(5.52949 4.88894 6.95906e-19)
(5.11599 4.62378 0)
(4.6959 4.35511 0)
(4.32291 4.11419 2.20343e-18)
(4.01287 3.90361 3.19314e-18)
(3.75383 3.70674 -6.60763e-18)
(3.54136 3.51582 1.75192e-17)
(3.36975 3.32752 -2.18491e-17)
(3.21937 3.14998 -2.73465e-17)
(3.11652 2.9319 2.45914e-17)
(2.97777 2.70807 -1.00842e-17)
(2.55136 1.96107 5.39053e-18)
(6.74221 4.88706 1.03107e-17)
(7.23659 6.69844 0)
(7.35502 5.94524 0)
(6.9189 6.22425 -3.03899e-18)
(6.81778 5.79227 2.45328e-18)
(6.46612 5.7057 -3.14746e-19)
(6.17066 5.48236 -3.26073e-18)
(5.83026 5.25282 1.28295e-18)
(5.45726 5.00457 1.16979e-17)
(5.04527 4.73724 -1.34787e-18)
(4.62507 4.47032 2.94973e-18)
(4.24911 4.23548 -1.86249e-17)
(3.92934 4.03369 -1.92922e-17)
(3.64958 3.84913 -3.45386e-18)
(3.40005 3.67568 0)
(3.17506 3.4959 -3.75249e-19)
(2.99147 3.28235 1.40324e-17)
(2.90023 3.0188 -2.71929e-17)
(2.75252 2.83062 2.07666e-17)
(2.33219 1.9627 1.79725e-17)
(6.63991 4.98785 -2.21914e-17)
(7.11653 6.79012 -8.29434e-18)
(7.25257 6.06789 3.57347e-19)
(6.82069 6.34362 4.09954e-18)
(6.73108 5.91791 0)
(6.38603 5.82744 9.417e-18)
(6.09392 5.59991 3.74256e-18)
(5.75545 5.36624 -5.36732e-19)
(5.38427 5.11379 -5.90978e-18)
(4.97514 4.84459 -1.30386e-18)
(4.55826 4.58101 1.20657e-18)
(4.18125 4.35527 1.62806e-17)
(3.85352 4.16553 1.874e-17)
(3.56252 3.98864 3.28299e-18)
(3.31145 3.81396 1.73847e-17)
(3.09997 3.65018 0)
(2.87995 3.50329 0)
(2.61659 3.32369 1.76607e-17)
(2.17575 2.97917 1.99477e-19)
(1.2027 2.10872 -1.59552e-17)
(6.56073 5.10797 1.19672e-17)
(7.01288 6.93471 2.4916e-17)
(7.17454 6.1986 -3.66362e-17)
(6.74291 6.46335 2.02031e-17)
(6.65776 6.04085 -2.09485e-18)
(6.30853 5.94434 1.21971e-17)
(6.01603 5.71157 0)
(5.67952 5.47409 -5.94556e-19)
(5.3131 5.21956 0)
(4.90957 4.95137 1.67979e-17)
(4.49526 4.6928 -1.62718e-18)
(4.11607 4.47707 1.81954e-18)
(3.78117 4.30278 2.09904e-17)
(3.47225 4.14834 -7.20897e-18)
(3.16971 4.00485 -9.19657e-18)
(2.85656 3.87075 0)
(2.56197 3.72655 0)
(2.28173 3.51521 0)
(1.87136 3.07671 -1.01019e-17)
(1.26087 2.54722 -5.76484e-18)
(6.51015 5.22528 0)
(7.01106 7.08314 0)
(7.1305 6.35491 1.31634e-17)
(6.68471 6.59849 -1.66259e-17)
(6.5781 6.15794 1.06388e-17)
(6.22775 6.0536 -1.10302e-17)
(5.93917 5.81721 -3.06535e-19)
(5.60809 5.57863 2.3738e-19)
(5.24648 5.32357 9.99447e-19)
(4.84489 5.05527 -1.92372e-17)
(4.43112 4.80003 2.80199e-18)
(4.05204 4.59535 1.60007e-17)
(3.71279 4.43983 -2.08448e-17)
(3.39612 4.3093 -2.34206e-17)
(3.10859 4.18397 8.14846e-18)
(2.8637 4.07053 0)
(2.6112 3.99635 1.28357e-17)
(2.32754 3.84139 1.6123e-17)
(1.81762 3.40289 -1.86961e-17)
(1.16708 3.06061 2.40626e-17)
(6.43185 5.30089 0)
(6.87599 7.17015 1.95393e-17)
(7.01649 6.45166 -3.17851e-18)
(6.57539 6.69386 2.04062e-17)
(6.48492 6.26058 -1.11783e-17)
(6.15142 6.15586 0)
(5.86767 5.91925 0)
(5.53948 5.67944 0)
(5.1788 5.42207 4.14442e-18)
(4.7798 5.1537 7.44229e-19)
(4.37238 4.90495 0)
(4.00001 4.71432 -1.58231e-17)
(3.6663 4.58012 0)
(3.35259 4.4785 1.6679e-17)
(3.04407 4.3967 -1.14241e-17)
(2.72638 4.31928 -9.30502e-18)
(2.44615 4.21097 -2.44871e-17)
(2.12599 3.99405 -1.50142e-17)
(1.49978 3.5782 -2.53589e-17)
(1.11231 3.402 1.9936e-17)
(6.31507 5.37364 -7.29886e-18)
(6.75198 7.20435 4.4253e-19)
(6.90234 6.50563 -3.32361e-18)
(6.47947 6.75866 -1.5752e-17)
(6.42279 6.36163 0)
(6.08316 6.25503 0)
(5.79777 6.01712 0)
(5.47018 5.77493 1.55782e-19)
(5.11282 5.51714 -5.34175e-18)
(4.72086 5.25224 0)
(4.32016 5.01043 0)
(3.95171 4.83121 0)
(3.61854 4.71556 0)
(3.30193 4.63975 1.22596e-17)
(3.00746 4.57999 3.13066e-17)
(2.77385 4.5305 9.95415e-18)
(2.54523 4.44439 2.37513e-17)
(2.16348 4.2134 -1.99547e-17)
(1.54971 3.83514 8.11267e-18)
(1.24424 3.80724 0)
(6.28111 5.4939 6.9797e-18)
(6.70627 7.36471 -3.85971e-17)
(6.89359 6.67929 -9.95117e-18)
(6.45366 6.88763 -2.58407e-18)
(6.36568 6.47034 2.49344e-18)
(6.00832 6.35212 -1.59384e-17)
(5.72665 6.11136 9.79065e-19)
(5.40239 5.86834 1.50049e-18)
(5.05063 5.61185 0)
(4.66383 5.34896 -1.20223e-18)
(4.26777 5.11105 1.09455e-18)
(3.9068 4.94196 0)
(3.58617 4.84616 0)
(3.28585 4.80072 -1.53441e-17)
(3.00566 4.78231 2.71233e-18)
(2.71061 4.74669 -9.34988e-18)
(2.37411 4.6767 2.10214e-17)
(1.93732 4.40154 1.74765e-17)
(1.30501 4.14839 -3.19186e-17)
(1.09423 4.16594 1.65691e-17)
(6.24287 5.5991 1.29273e-17)
(6.67775 7.48956 3.4782e-17)
(6.84026 6.79945 1.19376e-17)
(6.36352 7.00515 0)
(6.26938 6.56854 0)
(5.92977 6.44886 1.19907e-17)
(5.65468 6.2064 -5.54648e-18)
(5.3343 5.96326 -1.52781e-18)
(4.98695 5.70646 6.88246e-20)
(4.60458 5.44384 1.41046e-17)
(4.21598 5.21 -1.95679e-17)
(3.86651 5.05061 0)
(3.56076 4.97289 0)
(3.27295 4.94895 -1.09201e-17)
(2.98311 4.9441 -1.42784e-17)
(2.72361 4.93464 0)
(2.48533 4.83922 -3.0318e-17)
(2.06241 4.64531 -5.25397e-18)
(1.55384 4.63308 3.03961e-17)
(1.3682 4.75722 -1.52916e-17)
(6.11718 5.66102 -2.37283e-17)
(6.52069 7.52711 -1.64552e-17)
(6.68036 6.84135 0)
(6.23559 7.0656 0)
(6.18582 6.66433 0)
(5.85432 6.54859 0)
(5.57858 6.30407 5.78912e-18)
(5.26241 6.05921 -2.59857e-18)
(4.91892 5.80018 0)
(4.54205 5.53685 -1.27419e-17)
(4.16345 5.30643 3.54394e-17)
(3.82777 5.15458 1.49851e-18)
(3.53645 5.08987 2.21612e-18)
(3.25683 5.09095 1.84958e-17)
(2.99845 5.1361 -1.22996e-17)
(2.75631 5.16725 0)
(2.43969 5.14113 9.53281e-18)
(1.90052 5.07699 7.9586e-19)
(1.22165 5.1417 -4.93181e-18)
(0.883762 5.28869 1.03382e-17)
(6.01515 5.7633 1.12149e-17)
(6.39981 7.63734 -1.63352e-17)
(6.61268 6.96517 0)
(6.17185 7.17488 -3.6077e-18)
(6.11674 6.77566 1.34272e-17)
(5.76744 6.65087 0)
(5.49626 6.40309 0)
(5.18401 6.15414 4.71223e-18)
(4.84464 5.89171 -6.72863e-19)
(4.47651 5.62776 1.2782e-17)
(4.11243 5.40125 -1.69264e-17)
(3.79575 5.25625 1.07994e-17)
(3.53075 5.20597 0)
(3.2958 5.23679 -1.01198e-17)
(3.0551 5.29278 6.3198e-18)
(2.82955 5.3307 6.88496e-18)
(2.57467 5.29068 0)
(2.11701 5.35668 4.7189e-18)
(1.47248 5.9388 7.76394e-18)
(1.40858 6.32219 2.39811e-18)
(5.95952 5.88745 -2.14716e-17)
(6.35767 7.79783 2.38984e-17)
(6.55574 7.13229 1.69473e-17)
(6.08153 7.3135 -4.31705e-18)
(6.01235 6.88705 -2.02401e-17)
(5.67035 6.75447 0)
(5.40772 6.50188 5.1541e-18)
(5.09874 6.2479 -2.10602e-18)
(4.76805 5.98344 1.19309e-20)
(4.41277 5.71985 -1.11103e-17)
(4.06388 5.49543 -8.6564e-19)
(3.76589 5.35432 -1.21199e-17)
(3.52127 5.30263 1.47555e-17)
(3.30097 5.34178 4.6019e-18)
(3.1006 5.42983 -1.06786e-17)
(2.9287 5.49338 1.20297e-17)
(2.72822 5.55203 0)
(2.27042 6.03197 0)
(1.86189 6.9378 6.75863e-19)
(0.407017 7.04297 -4.04549e-18)
(5.84657 5.97405 1.04176e-17)
(6.2211 7.88689 2.19192e-17)
(6.40808 7.22479 -1.6827e-17)
(5.9436 7.40682 1.46461e-17)
(5.90336 6.99291 1.96307e-17)
(5.57285 6.85972 0)
(5.31223 6.60052 -5.43497e-18)
(5.01181 6.34361 -3.1224e-18)
(4.69245 6.07709 0)
(4.34788 5.81016 0)
(4.01245 5.58277 0)
(3.73595 5.44442 0)
(3.52002 5.39334 -1.68062e-17)
(3.35271 5.44615 -6.33543e-18)
(3.19418 5.55837 0)
(3.06945 5.66999 -5.94845e-18)
(2.96756 5.8123 0)
(2.92438 6.16761 -2.52712e-18)
(2.87372 6.44342 -2.12112e-18)
(1.56883 6.4351 3.53334e-18)
(5.717 6.07519 -1.9769e-17)
(6.06032 7.98609 -1.38881e-17)
(6.28345 7.33948 -1.04766e-17)
(5.83232 7.51451 -1.36675e-17)
(5.80316 7.10833 -9.21163e-18)
(5.46371 6.96715 0)
(5.21083 6.70265 -9.48912e-19)
(4.92235 6.44232 3.92234e-19)
(4.61118 6.17006 -1.74097e-18)
(4.27695 5.89711 0)
(3.95913 5.66613 1.00738e-18)
(3.70838 5.53 -1.14534e-18)