/*--------------------------------*- C++ -*----------------------------------*\
| =========                 |                                                 |
| \\      /  F ield         | OpenFOAM: The Open Source CFD Toolbox           |
|  \\    /   O peration     | Version:  2412                                  |
|   \\  /    A nd           | Website:  www.openfoam.com                      |
|    \\/     M anipulation  |                                                 |
\*---------------------------------------------------------------------------*/
FoamFile
{
    version     2.0;
    format      ascii;
    arch        "LSB;label=32;scalar=64";
    class       volVectorField;
    location    "0.22";
    object      U_0_0;
}
// * * * * * * * * * * * * * * * * * * * * * * * * * * * * * * * * * * * * * //

dimensions      [0 1 -1 0 0 0 0];

internalField   nonuniform List<vector> 
800
(
(0.00232619 0 0)
(0.00697863 0 0)
(0.011631 0 0)
(0.0162832 0 0)
(0.0209352 0 0)
(0.0255869 0 0)
(0.0302383 0 0)
(0.0348893 0 0)
(0.0395398 0 0)
(0.0441899 0 0)
(0.0488394 0 0)
(0.0534882 0 0)
(0.0581363 0 0)
(0.0627837 0 0)
(0.0674303 0 0)
(0.072076 0 0)
(0.0767208 0 0)
(0.0813646 0 0)
(0.0860073 0 0)
(0.0906489 0 0)
(0.0952894 0 0)
(0.0999286 0 0)
(0.104566 0 0)
(0.109203 0 0)
(0.113838 0 0)
(0.118472 0 0)
(0.123104 0 0)
(0.127734 0 0)
(0.132363 0 0)
(0.13699 0 0)
(0.141616 0 0)
(0.146239 0 0)
(0.150861 0 0)
(0.15548 0 0)
(0.160098 0 0)
(0.164713 0 0)
(0.169327 0 0)
(0.173938 0 0)
(0.178547 0 0)
(0.183153 0 0)
(0.187757 0 0)
(0.192359 0 0)
(0.196958 0 0)
(0.201554 0 0)
(0.206148 0 0)
(0.210739 0 0)
(0.215327 0 0)
(0.219912 0 0)
(0.224495 0 0)
(0.229074 0 0)
(0.233651 0 0)
(0.238224 0 0)
(0.242794 0 0)
(0.247361 0 0)
(0.251925 0 0)
(0.256485 0 0)
(0.261041 0 0)
(0.265595 0 0)
(0.270144 0 0)
(0.27469 0 0)
(0.279232 0 0)
(0.283771 0 0)
(0.288306 0 0)
(0.292836 0 0)
(0.297363 0 0)
(0.301886 0 0)
(0.306404 0 0)
(0.310919 0 0)
(0.315429 0 0)
(0.319934 0 0)
(0.324436 0 0)
(0.328933 0 0)
(0.333425 0 0)
(0.337913 0 0)
(0.342396 0 0)
(0.346874 0 0)
(0.351348 0 0)
(0.355816 0 0)
(0.36028 0 0)
(0.364738 0 0)
(0.369192 0 0)
(0.37364 0 0)
(0.378083 0 0)
(0.38252 0 0)
(0.386953 0 0)
(0.391379 0 0)
(0.3958 0 0)
(0.400216 0 0)
(0.404626 0 0)
(0.40903 0 0)
(0.413428 0 0)
(0.41782 0 0)
(0.422206 0 0)
(0.426586 0 0)
(0.43096 0 0)
(0.435327 0 0)
(0.439688 0 0)
(0.444043 0 0)
(0.448391 0 0)
(0.452733 0 0)
(0.457068 0 0)
(0.461396 0 0)
(0.465717 0 0)
(0.470032 0 0)
(0.474339 0 0)
(0.478639 0 0)
(0.482932 0 0)
(0.487218 0 0)
(0.491497 0 0)
(0.495768 0 0)
(0.500031 0 0)
(0.504287 0 0)
(0.508535 0 0)
(0.512775 0 0)
(0.517008 0 0)
(0.521232 0 0)
(0.525448 0 0)
(0.529657 0 0)
(0.533857 0 0)
(0.538048 0 0)
(0.542231 0 0)
(0.546406 0 0)
(0.550572 0 0)
(0.554729 0 0)
(0.558877 0 0)
(0.563017 0 0)
(0.567147 0 0)
(0.571268 0 0)
(0.57538 0 0)
(0.579483 0 0)
(0.583576 0 0)
(0.58766 0 0)
(0.591734 0 0)
(0.595798 0 0)
(0.599852 0 0)
(0.603897 0 0)
(0.607931 0 0)
(0.611955 0 0)
(0.615969 0 0)
(0.619972 0 0)
(0.623965 0 0)
(0.627948 0 0)
(0.631919 0 0)
(0.63588 0 0)
(0.639829 0 0)
(0.643768 0 0)
(0.647696 0 0)
(0.651612 0 0)
(0.655516 0 0)
(0.659409 0 0)
(0.663291 0 0)
(0.66716 0 0)
(0.671018 0 0)
(0.674863 0 0)
(0.678697 0 0)
(0.682518 0 0)
(0.686326 0 0)
(0.690122 0 0)
(0.693905 0 0)
(0.697676 0 0)
(0.701433 0 0)
(0.705177 0 0)
(0.708908 0 0)
(0.712626 0 0)
(0.71633 0 0)
(0.72002 0 0)
(0.723697 0 0)
(0.72736 0 0)
(0.731008 0 0)
(0.734642 0 0)
(0.738262 0 0)
(0.741867 0 0)
(0.745458 0 0)
(0.749033 0 0)
(0.752594 0 0)
(0.756139 0 0)
(0.759669 0 0)
(0.763183 0 0)
(0.766682 0 0)
(0.770165 0 0)
(0.773632 0 0)
(0.777083 0 0)
(0.780517 0 0)
(0.783935 0 0)
(0.787336 0 0)
(0.79072 0 0)
(0.794087 0 0)
(0.797437 0 0)
(0.80077 0 0)
(0.804085 0 0)
(0.807382 0 0)
(0.810661 0 0)
(0.813921 0 0)
(0.817164 0 0)
(0.820388 0 0)
(0.823593 0 0)
(0.826778 0 0)
(0.829945 0 0)
(0.833093 0 0)
(0.83622 0 0)
(0.839328 0 0)
(0.842416 0 0)
(0.845484 0 0)
(0.848531 0 0)
(0.851557 0 0)
(0.854562 0 0)
(0.857546 0 0)
(0.860509 0 0)
(0.86345 0 0)
(0.866369 0 0)
(0.869266 0 0)
(0.872141 0 0)
(0.874993 0 0)
(0.877821 0 0)
(0.880627 0 0)
(0.883409 0 0)
(0.886168 0 0)
(0.888903 0 0)
(0.891613 0 0)
(0.894299 0 0)
(0.89696 0 0)
(0.899596 0 0)
(0.902206 0 0)
(0.904791 0 0)
(0.90735 0 0)
(0.909882 0 0)
(0.912388 0 0)
(0.914867 0 0)
(0.917318 0 0)
(0.919742 0 0)
(0.922138 0 0)
(0.924506 0 0)
(0.926845 0 0)
(0.929156 0 0)
(0.931437 0 0)
(0.933688 0 0)
(0.935909 0 0)
(0.9381 0 0)
(0.94026 0 0)
(0.942389 0 0)
(0.944487 0 0)
(0.946552 0 0)
(0.948586 0 0)
(0.950586 0 0)
(0.952553 0 0)
(0.954487 0 0)
(0.956387 0 0)
(0.958252 0 0)
(0.960082 0 0)
(0.961877 0 0)
(0.963636 0 0)
(0.965359 0 0)
(0.967045 0 0)
(0.968694 0 0)
(0.970305 0 0)
(0.971878 0 0)
(0.973412 0 0)
(0.974907 0 0)
(0.976362 0 0)
(0.977776 0 0)
(0.97915 0 0)
(0.980482 0 0)
(0.981771 0 0)
(0.983019 0 0)
(0.984223 0 0)
(0.985383 0 0)
(0.986498 0 0)
(0.987568 0 0)
(0.988593 0 0)
(0.989571 0 0)
(0.990502 0 0)
(0.991385 0 0)
(0.992219 0 0)
(0.993004 0 0)
(0.993739 0 0)
(0.994424 0 0)
(0.995057 0 0)
(0.995637 0 0)
(0.996165 0 0)
(0.996638 0 0)
(0.997057 0 0)
(0.99742 0 0)
(0.997726 0 0)
(0.997975 0 0)
(0.998166 0 0)
(0.998297 0 0)
(0.998368 0 0)
(0.998378 0 0)
(0.998326 0 0)
(0.99821 0 0)
(0.998031 0 0)
(0.997785 0 0)
(0.997474 0 0)
(0.997094 0 0)
(0.996646 0 0)
(0.996128 0 0)
(0.995539 0 0)
(0.994877 0 0)
(0.994142 0 0)
(0.993332 0 0)
(0.992445 0 0)
(0.99148 0 0)
(0.990436 0 0)
(0.989312 0 0)
(0.988106 0 0)
(0.986816 0 0)
(0.98544 0 0)
(0.983978 0 0)
(0.982427 0 0)
(0.980787 0 0)
(0.979054 0 0)
(0.977227 0 0)
(0.975305 0 0)
(0.973285 0 0)
(0.971166 0 0)
(0.968946 0 0)
(0.966621 0 0)
(0.964191 0 0)
(0.961654 0 0)
(0.959006 0 0)
(0.956245 0 0)
(0.95337 0 0)
(0.950377 0 0)
(0.947264 0 0)
(0.944029 0 0)
(0.940669 0 0)
(0.93718 0 0)
(0.933561 0 0)
(0.929808 0 0)
(0.925917 0 0)
(0.921887 0 0)
(0.917713 0 0)
(0.913393 0 0)
(0.908922 0 0)
(0.904298 0 0)
(0.899516 0 0)
(0.894572 0 0)
(0.889464 0 0)
(0.884186 0 0)
(0.878734 0 0)
(0.873104 0 0)
(0.867292 0 0)
(0.861293 0 0)
(0.855102 0 0)
(0.848714 0 0)
(0.842124 0 0)
(0.835326 0 0)
(0.828316 0 0)
(0.821087 0 0)
(0.813634 0 0)
(0.80595 0 0)
(0.79803 0 0)
(0.789866 0 0)
(0.781454 0 0)
(0.772784 0 0)
(0.763851 0 0)
(0.754647 0 0)
(0.745165 0 0)
(0.735397 0 0)
(0.725336 0 0)
(0.714973 0 0)
(0.704299 0 0)
(0.693308 0 0)
(0.68199 0 0)
(0.670336 0 0)
(0.658338 0 0)
(0.645986 0 0)
(0.633273 0 0)
(0.620189 0 0)
(0.606724 0 0)
(0.592871 0 0)
(0.578621 0 0)
(0.563964 0 0)
(0.548894 0 0)
(0.533402 0 0)
(0.51748 0 0)
(0.501123 0 0)
(0.484325 0 0)
(0.467081 0 0)
(0.449386 0 0)
(0.431239 0 0)
(0.412638 0 0)
(0.393584 0 0)
(0.374078 0 0)
(0.354126 0 0)
(0.333734 0 0)
(0.312911 0 0)
(0.291669 0 0)
(0.270021 0 0)
(0.247986 0 0)
(0.225583 0 0)
(0.202835 0 0)
(0.17977 0 0)
(0.156415 0 0)
(0.132804 0 0)
(0.10897 0 0)
(0.0849507 0 0)
(0.0607851 0 0)
(0.0365138 0 0)
(0.0121786 0 0)
(-0.0121781 0 0)
(-0.0365133 0 0)
(-0.0607845 0 0)
(-0.0849498 0 0)
(-0.108969 0 0)
(-0.132802 0 0)
(-0.156413 0 0)
(-0.179767 0 0)
(-0.202833 0 0)
(-0.22558 0 0)
(-0.247982 0 0)
(-0.270017 0 0)
(-0.291664 0 0)
(-0.312906 0 0)
(-0.333729 0 0)
(-0.354121 0 0)
(-0.374072 0 0)
(-0.393577 0 0)
(-0.412631 0 0)
(-0.431232 0 0)
(-0.449379 0 0)
(-0.467073 0 0)
(-0.484317 0 0)
(-0.501115 0 0)
(-0.517472 0 0)
(-0.533393 0 0)
(-0.548885 0 0)
(-0.563956 0 0)
(-0.578612 0 0)
(-0.592863 0 0)
(-0.606716 0 0)
(-0.62018 0 0)
(-0.633265 0 0)
(-0.645978 0 0)
(-0.658329 0 0)
(-0.670328 0 0)
(-0.681982 0 0)
(-0.6933 0 0)
(-0.704292 0 0)
(-0.714965 0 0)
(-0.725328 0 0)
(-0.73539 0 0)
(-0.745158 0 0)
(-0.75464 0 0)
(-0.763844 0 0)
(-0.772777 0 0)
(-0.781447 0 0)
(-0.78986 0 0)
(-0.798024 0 0)
(-0.805944 0 0)
(-0.813628 0 0)
(-0.821082 0 0)
(-0.828311 0 0)
(-0.835321 0 0)
(-0.842119 0 0)
(-0.848709 0 0)
(-0.855097 0 0)
(-0.861289 0 0)
(-0.867288 0 0)
(-0.8731 0 0)
(-0.87873 0 0)
(-0.884182 0 0)
(-0.88946 0 0)
(-0.894569 0 0)
(-0.899512 0 0)
(-0.904295 0 0)
(-0.908919 0 0)
(-0.91339 0 0)
(-0.917711 0 0)
(-0.921885 0 0)
(-0.925915 0 0)
(-0.929805 0 0)
(-0.933559 0 0)
(-0.937178 0 0)
(-0.940667 0 0)
(-0.944027 0 0)
(-0.947263 0 0)
(-0.950375 0 0)
(-0.953368 0 0)
(-0.956244 0 0)
(-0.959004 0 0)
(-0.961652 0 0)
(-0.96419 0 0)
(-0.96662 0 0)
(-0.968945 0 0)
(-0.971165 0 0)
(-0.973285 0 0)
(-0.975304 0 0)
(-0.977227 0 0)
(-0.979053 0 0)
(-0.980786 0 0)
(-0.982427 0 0)
(-0.983978 0 0)
(-0.98544 0 0)
(-0.986815 0 0)
(-0.988105 0 0)
(-0.989312 0 0)
(-0.990436 0 0)
(-0.99148 0 0)
(-0.992445 0 0)
(-0.993331 0 0)
(-0.994142 0 0)
(-0.994877 0 0)
(-0.995539 0 0)
(-0.996128 0 0)
(-0.996646 0 0)
(-0.997094 0 0)
(-0.997474 0 0)
(-0.997785 0 0)
(-0.998031 0 0)
(-0.99821 0 0)
(-0.998326 0 0)
(-0.998378 0 0)
(-0.998368 0 0)
(-0.998297 0 0)
(-0.998166 0 0)
(-0.997975 0 0)
(-0.997726 0 0)
(-0.99742 0 0)
(-0.997057 0 0)
(-0.996638 0 0)
(-0.996164 0 0)
(-0.995637 0 0)
(-0.995057 0 0)
(-0.994424 0 0)
(-0.993739 0 0)
(-0.993004 0 0)
(-0.992219 0 0)
(-0.991385 0 0)
(-0.990502 0 0)
(-0.989571 0 0)
(-0.988593 0 0)
(-0.987568 0 0)
(-0.986498 0 0)
(-0.985382 0 0)
(-0.984222 0 0)
(-0.983018 0 0)
(-0.981771 0 0)
(-0.980481 0 0)
(-0.979149 0 0)
(-0.977776 0 0)
(-0.976361 0 0)
(-0.974906 0 0)
(-0.973412 0 0)
(-0.971878 0 0)
(-0.970305 0 0)
(-0.968694 0 0)
(-0.967045 0 0)
(-0.965359 0 0)
(-0.963636 0 0)
(-0.961877 0 0)
(-0.960082 0 0)
(-0.958251 0 0)
(-0.956386 0 0)
(-0.954486 0 0)
(-0.952553 0 0)
(-0.950585 0 0)
(-0.948585 0 0)
(-0.946552 0 0)
(-0.944486 0 0)
(-0.942389 0 0)
(-0.94026 0 0)
(-0.938099 0 0)
(-0.935908 0 0)
(-0.933687 0 0)
(-0.931436 0 0)
(-0.929155 0 0)
(-0.926844 0 0)
(-0.924505 0 0)
(-0.922137 0 0)
(-0.919741 0 0)
(-0.917317 0 0)
(-0.914866 0 0)
(-0.912387 0 0)
(-0.909881 0 0)
(-0.907348 0 0)
(-0.90479 0 0)
(-0.902205 0 0)
(-0.899594 0 0)
(-0.896959 0 0)
(-0.894298 0 0)
(-0.891612 0 0)
(-0.888901 0 0)
(-0.886167 0 0)
(-0.883408 0 0)
(-0.880626 0 0)
(-0.87782 0 0)
(-0.874991 0 0)
(-0.872139 0 0)
(-0.869265 0 0)
(-0.866368 0 0)
(-0.863449 0 0)
(-0.860508 0 0)
(-0.857545 0 0)
(-0.854561 0 0)
(-0.851555 0 0)
(-0.848529 0 0)
(-0.845482 0 0)
(-0.842415 0 0)
(-0.839327 0 0)
(-0.836219 0 0)
(-0.833091 0 0)
(-0.829944 0 0)
(-0.826777 0 0)
(-0.823591 0 0)
(-0.820386 0 0)
(-0.817162 0 0)
(-0.81392 0 0)
(-0.810659 0 0)
(-0.80738 0 0)
(-0.804083 0 0)
(-0.800768 0 0)
(-0.797436 0 0)
(-0.794086 0 0)
(-0.790719 0 0)
(-0.787334 0 0)
(-0.783933 0 0)
(-0.780515 0 0)
(-0.777081 0 0)
(-0.77363 0 0)
(-0.770164 0 0)
(-0.766681 0 0)
(-0.763182 0 0)
(-0.759667 0 0)
(-0.756137 0 0)
(-0.752592 0 0)
(-0.749031 0 0)
(-0.745456 0 0)
(-0.741865 0 0)
(-0.73826 0 0)
(-0.734641 0 0)
(-0.731006 0 0)
(-0.727358 0 0)
(-0.723695 0 0)
(-0.720019 0 0)
(-0.716328 0 0)
(-0.712624 0 0)
(-0.708907 0 0)
(-0.705176 0 0)
(-0.701431 0 0)
(-0.697674 0 0)
(-0.693904 0 0)
(-0.69012 0 0)
(-0.686325 0 0)
(-0.682516 0 0)
(-0.678695 0 0)
(-0.674862 0 0)
(-0.671016 0 0)
(-0.667159 0 0)
(-0.663289 0 0)
(-0.659408 0 0)
(-0.655515 0 0)
(-0.65161 0 0)
(-0.647694 0 0)
(-0.643767 0 0)
(-0.639828 0 0)
(-0.635878 0 0)
(-0.631918 0 0)
(-0.627946 0 0)
(-0.623964 0 0)
(-0.619971 0 0)
(-0.615967 0 0)
(-0.611954 0 0)
(-0.607929 0 0)
(-0.603895 0 0)
(-0.599851 0 0)
(-0.595796 0 0)
(-0.591732 0 0)
(-0.587658 0 0)
(-0.583575 0 0)
(-0.579481 0 0)
(-0.575379 0 0)
(-0.571267 0 0)
(-0.567146 0 0)
(-0.563015 0 0)
(-0.558876 0 0)
(-0.554728 0 0)
(-0.55057 0 0)
(-0.546404 0 0)
(-0.54223 0 0)
(-0.538047 0 0)
(-0.533855 0 0)
(-0.529655 0 0)
(-0.525447 0 0)
(-0.521231 0 0)
(-0.517006 0 0)
(-0.512774 0 0)
(-0.508534 0 0)
(-0.504286 0 0)
(-0.50003 0 0)
(-0.495766 0 0)
(-0.491495 0 0)
(-0.487217 0 0)
(-0.482931 0 0)
(-0.478638 0 0)
(-0.474338 0 0)
(-0.470031 0 0)
(-0.465716 0 0)
(-0.461395 0 0)
(-0.457067 0 0)
(-0.452732 0 0)
(-0.44839 0 0)
(-0.444042 0 0)
(-0.439687 0 0)
(-0.435326 0 0)
(-0.430959 0 0)
(-0.426585 0 0)
(-0.422205 0 0)
(-0.417819 0 0)
(-0.413427 0 0)
(-0.409029 0 0)
(-0.404625 0 0)
(-0.400215 0 0)
(-0.3958 0 0)
(-0.391379 0 0)
(-0.386952 0 0)
(-0.38252 0 0)
(-0.378082 0 0)
(-0.373639 0 0)
(-0.369191 0 0)
(-0.364738 0 0)
(-0.360279 0 0)
(-0.355816 0 0)
(-0.351347 0 0)
(-0.346874 0 0)
(-0.342395 0 0)
(-0.337912 0 0)
(-0.333425 0 0)
(-0.328932 0 0)
(-0.324435 0 0)
(-0.319934 0 0)
(-0.315428 0 0)
(-0.310918 0 0)
(-0.306404 0 0)
(-0.301885 0 0)
(-0.297363 0 0)
(-0.292836 0 0)
(-0.288305 0 0)
(-0.283771 0 0)
(-0.279232 0 0)
(-0.27469 0 0)
(-0.270144 0 0)
(-0.265594 0 0)
(-0.261041 0 0)
(-0.256484 0 0)
(-0.251924 0 0)
(-0.247361 0 0)
(-0.242794 0 0)
(-0.238224 0 0)
(-0.23365 0 0)
(-0.229074 0 0)
(-0.224495 0 0)
(-0.219912 0 0)
(-0.215327 0 0)
(-0.210739 0 0)
(-0.206148 0 0)
(-0.201554 0 0)
(-0.196957 0 0)
(-0.192358 0 0)
(-0.187757 0 0)
(-0.183153 0 0)
(-0.178546 0 0)
(-0.173938 0 0)
(-0.169327 0 0)
(-0.164713 0 0)
(-0.160098 0 0)
(-0.15548 0 0)
(-0.150861 0 0)
(-0.146239 0 0)
(-0.141616 0 0)
(-0.13699 0 0)
(-0.132363 0 0)
(-0.127734 0 0)
(-0.123104 0 0)
(-0.118472 0 0)
(-0.113838 0 0)
(-0.109203 0 0)
(-0.104566 0 0)
(-0.0999285 0 0)
(-0.0952893 0 0)
(-0.0906489 0 0)
(-0.0860073 0 0)
(-0.0813646 0 0)
(-0.0767208 0 0)
(-0.072076 0 0)
(-0.0674303 0 0)
(-0.0627837 0 0)
(-0.0581363 0 0)
(-0.0534882 0 0)
(-0.0488394 0 0)
(-0.0441899 0 0)
(-0.0395399 0 0)
(-0.0348893 0 0)
(-0.0302383 0 0)
(-0.0255869 0 0)
(-0.0209352 0 0)
(-0.0162832 0 0)
(-0.011631 0 0)
(-0.00697867 0 0)
(-0.00232623 0 0)
)
;

boundaryField
{
    left
    {
        type            fixedValue;
        value           uniform (0 0 0);
    }
    right
    {
        type            fixedValue;
        value           uniform (0 0 0);
    }
    frontBackUpDown
    {
        type            empty;
    }
}


// ************************************************************************* //
