/*--------------------------------*- C++ -*----------------------------------*\
| =========                 |                                                 |
| \\      /  F ield         | OpenFOAM: The Open Source CFD Toolbox           |
|  \\    /   O peration     | Version:  2412                                  |
|   \\  /    A nd           | Website:  www.openfoam.com                      |
|    \\/     M anipulation  |                                                 |
\*---------------------------------------------------------------------------*/
FoamFile
{
    version     2.0;
    format      ascii;
    arch        "LSB;label=32;scalar=64";
    class       volVectorField;
    location    "0.22";
    object      U_0_0_0;
}
// * * * * * * * * * * * * * * * * * * * * * * * * * * * * * * * * * * * * * //

dimensions      [0 1 -1 0 0 0 0];

internalField   nonuniform List<vector> 
800
(
(0.00232836 0 0)
(0.00698512 0 0)
(0.0116418 0 0)
(0.0162983 0 0)
(0.0209547 0 0)
(0.0256107 0 0)
(0.0302664 0 0)
(0.0349218 0 0)
(0.0395766 0 0)
(0.044231 0 0)
(0.0488848 0 0)
(0.0535379 0 0)
(0.0581904 0 0)
(0.0628421 0 0)
(0.067493 0 0)
(0.072143 0 0)
(0.0767921 0 0)
(0.0814402 0 0)
(0.0860872 0 0)
(0.0907331 0 0)
(0.0953778 0 0)
(0.100021 0 0)
(0.104663 0 0)
(0.109304 0 0)
(0.113944 0 0)
(0.118582 0 0)
(0.123218 0 0)
(0.127853 0 0)
(0.132486 0 0)
(0.137117 0 0)
(0.141747 0 0)
(0.146374 0 0)
(0.151 0 0)
(0.155624 0 0)
(0.160246 0 0)
(0.164865 0 0)
(0.169483 0 0)
(0.174098 0 0)
(0.178711 0 0)
(0.183322 0 0)
(0.18793 0 0)
(0.192536 0 0)
(0.197139 0 0)
(0.201739 0 0)
(0.206337 0 0)
(0.210932 0 0)
(0.215525 0 0)
(0.220114 0 0)
(0.224701 0 0)
(0.229284 0 0)
(0.233865 0 0)
(0.238442 0 0)
(0.243016 0 0)
(0.247587 0 0)
(0.252154 0 0)
(0.256719 0 0)
(0.261279 0 0)
(0.265836 0 0)
(0.27039 0 0)
(0.27494 0 0)
(0.279486 0 0)
(0.284028 0 0)
(0.288567 0 0)
(0.293102 0 0)
(0.297632 0 0)
(0.302159 0 0)
(0.306681 0 0)
(0.311199 0 0)
(0.315713 0 0)
(0.320223 0 0)
(0.324728 0 0)
(0.329228 0 0)
(0.333725 0 0)
(0.338216 0 0)
(0.342703 0 0)
(0.347185 0 0)
(0.351662 0 0)
(0.356134 0 0)
(0.360601 0 0)
(0.365063 0 0)
(0.36952 0 0)
(0.373972 0 0)
(0.378419 0 0)
(0.38286 0 0)
(0.387296 0 0)
(0.391726 0 0)
(0.39615 0 0)
(0.400569 0 0)
(0.404982 0 0)
(0.40939 0 0)
(0.413791 0 0)
(0.418187 0 0)
(0.422576 0 0)
(0.426959 0 0)
(0.431336 0 0)
(0.435707 0 0)
(0.440072 0 0)
(0.44443 0 0)
(0.448781 0 0)
(0.453126 0 0)
(0.457464 0 0)
(0.461795 0 0)
(0.46612 0 0)
(0.470437 0 0)
(0.474747 0 0)
(0.479051 0 0)
(0.483347 0 0)
(0.487635 0 0)
(0.491917 0 0)
(0.496191 0 0)
(0.500457 0 0)
(0.504716 0 0)
(0.508967 0 0)
(0.51321 0 0)
(0.517445 0 0)
(0.521672 0 0)
(0.525891 0 0)
(0.530102 0 0)
(0.534305 0 0)
(0.538499 0 0)
(0.542685 0 0)
(0.546862 0 0)
(0.55103 0 0)
(0.55519 0 0)
(0.559341 0 0)
(0.563482 0 0)
(0.567615 0 0)
(0.571739 0 0)
(0.575853 0 0)
(0.579958 0 0)
(0.584053 0 0)
(0.588139 0 0)
(0.592215 0 0)
(0.596282 0 0)
(0.600338 0 0)
(0.604385 0 0)
(0.608421 0 0)
(0.612447 0 0)
(0.616463 0 0)
(0.620468 0 0)
(0.624463 0 0)
(0.628447 0 0)
(0.632421 0 0)
(0.636383 0 0)
(0.640335 0 0)
(0.644275 0 0)
(0.648204 0 0)
(0.652121 0 0)
(0.656028 0 0)
(0.659922 0 0)
(0.663805 0 0)
(0.667676 0 0)
(0.671535 0 0)
(0.675382 0 0)
(0.679216 0 0)
(0.683039 0 0)
(0.686848 0 0)
(0.690646 0 0)
(0.69443 0 0)
(0.698201 0 0)
(0.70196 0 0)
(0.705705 0 0)
(0.709437 0 0)
(0.713155 0 0)
(0.71686 0 0)
(0.720551 0 0)
(0.724229 0 0)
(0.727892 0 0)
(0.731541 0 0)
(0.735176 0 0)
(0.738796 0 0)
(0.742401 0 0)
(0.745992 0 0)
(0.749568 0 0)
(0.753129 0 0)
(0.756674 0 0)
(0.760205 0 0)
(0.763719 0 0)
(0.767218 0 0)
(0.770701 0 0)
(0.774168 0 0)
(0.777618 0 0)
(0.781052 0 0)
(0.78447 0 0)
(0.787871 0 0)
(0.791255 0 0)
(0.794621 0 0)
(0.797971 0 0)
(0.801303 0 0)
(0.804617 0 0)
(0.807913 0 0)
(0.811191 0 0)
(0.814451 0 0)
(0.817693 0 0)
(0.820915 0 0)
(0.824119 0 0)
(0.827304 0 0)
(0.83047 0 0)
(0.833616 0 0)
(0.836742 0 0)
(0.839849 0 0)
(0.842935 0 0)
(0.846001 0 0)
(0.849047 0 0)
(0.852071 0 0)
(0.855075 0 0)
(0.858057 0 0)
(0.861018 0 0)
(0.863957 0 0)
(0.866874 0 0)
(0.869768 0 0)
(0.872641 0 0)
(0.87549 0 0)
(0.878317 0 0)
(0.88112 0 0)
(0.8839 0 0)
(0.886656 0 0)
(0.889387 0 0)
(0.892095 0 0)
(0.894778 0 0)
(0.897436 0 0)
(0.900068 0 0)
(0.902676 0 0)
(0.905257 0 0)
(0.907812 0 0)
(0.910341 0 0)
(0.912843 0 0)
(0.915319 0 0)
(0.917766 0 0)
(0.920186 0 0)
(0.922579 0 0)
(0.924942 0 0)
(0.927277 0 0)
(0.929583 0 0)
(0.93186 0 0)
(0.934107 0 0)
(0.936323 0 0)
(0.938509 0 0)
(0.940665 0 0)
(0.942789 0 0)
(0.944881 0 0)
(0.946941 0 0)
(0.948969 0 0)
(0.950964 0 0)
(0.952926 0 0)
(0.954854 0 0)
(0.956748 0 0)
(0.958607 0 0)
(0.960432 0 0)
(0.96222 0 0)
(0.963973 0 0)
(0.96569 0 0)
(0.967369 0 0)
(0.969011 0 0)
(0.970615 0 0)
(0.972181 0 0)
(0.973708 0 0)
(0.975196 0 0)
(0.976643 0 0)
(0.97805 0 0)
(0.979416 0 0)
(0.98074 0 0)
(0.982022 0 0)
(0.983261 0 0)
(0.984457 0 0)
(0.985608 0 0)
(0.986715 0 0)
(0.987777 0 0)
(0.988792 0 0)
(0.989761 0 0)
(0.990683 0 0)
(0.991557 0 0)
(0.992382 0 0)
(0.993157 0 0)
(0.993882 0 0)
(0.994557 0 0)
(0.995179 0 0)
(0.995749 0 0)
(0.996266 0 0)
(0.996729 0 0)
(0.997137 0 0)
(0.997489 0 0)
(0.997784 0 0)
(0.998021 0 0)
(0.9982 0 0)
(0.99832 0 0)
(0.998379 0 0)
(0.998377 0 0)
(0.998312 0 0)
(0.998184 0 0)
(0.997991 0 0)
(0.997733 0 0)
(0.997408 0 0)
(0.997015 0 0)
(0.996553 0 0)
(0.996021 0 0)
(0.995418 0 0)
(0.994742 0 0)
(0.993992 0 0)
(0.993166 0 0)
(0.992265 0 0)
(0.991285 0 0)
(0.990226 0 0)
(0.989085 0 0)
(0.987863 0 0)
(0.986557 0 0)
(0.985165 0 0)
(0.983686 0 0)
(0.982118 0 0)
(0.98046 0 0)
(0.97871 0 0)
(0.976866 0 0)
(0.974926 0 0)
(0.972888 0 0)
(0.97075 0 0)
(0.968511 0 0)
(0.966168 0 0)
(0.963718 0 0)
(0.961161 0 0)
(0.958493 0 0)
(0.955713 0 0)
(0.952817 0 0)
(0.949804 0 0)
(0.94667 0 0)
(0.943414 0 0)
(0.940032 0 0)
(0.936522 0 0)
(0.932881 0 0)
(0.929106 0 0)
(0.925193 0 0)
(0.92114 0 0)
(0.916943 0 0)
(0.9126 0 0)
(0.908106 0 0)
(0.903458 0 0)
(0.898652 0 0)
(0.893685 0 0)
(0.888552 0 0)
(0.883249 0 0)
(0.877773 0 0)
(0.872119 0 0)
(0.866282 0 0)
(0.860258 0 0)
(0.854041 0 0)
(0.847628 0 0)
(0.841012 0 0)
(0.83419 0 0)
(0.827154 0 0)
(0.819899 0 0)
(0.812421 0 0)
(0.804712 0 0)
(0.796767 0 0)
(0.788578 0 0)
(0.78014 0 0)
(0.771446 0 0)
(0.762489 0 0)
(0.753262 0 0)
(0.743756 0 0)
(0.733965 0 0)
(0.723882 0 0)
(0.713497 0 0)
(0.702803 0 0)
(0.691792 0 0)
(0.680455 0 0)
(0.668783 0 0)
(0.656769 0 0)
(0.644402 0 0)
(0.631676 0 0)
(0.61858 0 0)
(0.605106 0 0)
(0.591245 0 0)
(0.576989 0 0)
(0.56233 0 0)
(0.547259 0 0)
(0.53177 0 0)
(0.515855 0 0)
(0.499508 0 0)
(0.482724 0 0)
(0.465497 0 0)
(0.447824 0 0)
(0.429703 0 0)
(0.411133 0 0)
(0.392115 0 0)
(0.372651 0 0)
(0.352746 0 0)
(0.332406 0 0)
(0.311641 0 0)
(0.290463 0 0)
(0.268885 0 0)
(0.246925 0 0)
(0.224603 0 0)
(0.201942 0 0)
(0.178968 0 0)
(0.155709 0 0)
(0.132199 0 0)
(0.108469 0 0)
(0.084558 0 0)
(0.0605027 0 0)
(0.0363436 0 0)
(0.0121217 0 0)
(-0.0121212 0 0)
(-0.0363431 0 0)
(-0.0605021 0 0)
(-0.0845571 0 0)
(-0.108468 0 0)
(-0.132197 0 0)
(-0.155708 0 0)
(-0.178966 0 0)
(-0.201939 0 0)
(-0.2246 0 0)
(-0.246921 0 0)
(-0.268881 0 0)
(-0.290458 0 0)
(-0.311637 0 0)
(-0.332401 0 0)
(-0.35274 0 0)
(-0.372645 0 0)
(-0.392109 0 0)
(-0.411126 0 0)
(-0.429696 0 0)
(-0.447817 0 0)
(-0.465489 0 0)
(-0.482716 0 0)
(-0.4995 0 0)
(-0.515847 0 0)
(-0.531762 0 0)
(-0.547251 0 0)
(-0.562321 0 0)
(-0.576981 0 0)
(-0.591236 0 0)
(-0.605097 0 0)
(-0.618571 0 0)
(-0.631667 0 0)
(-0.644394 0 0)
(-0.65676 0 0)
(-0.668775 0 0)
(-0.680446 0 0)
(-0.691784 0 0)
(-0.702795 0 0)
(-0.713489 0 0)
(-0.723874 0 0)
(-0.733958 0 0)
(-0.743749 0 0)
(-0.753255 0 0)
(-0.762482 0 0)
(-0.77144 0 0)
(-0.780134 0 0)
(-0.788572 0 0)
(-0.796761 0 0)
(-0.804706 0 0)
(-0.812415 0 0)
(-0.819894 0 0)
(-0.827149 0 0)
(-0.834184 0 0)
(-0.841008 0 0)
(-0.847623 0 0)
(-0.854037 0 0)
(-0.860253 0 0)
(-0.866278 0 0)
(-0.872115 0 0)
(-0.877769 0 0)
(-0.883246 0 0)
(-0.888548 0 0)
(-0.893681 0 0)
(-0.898649 0 0)
(-0.903455 0 0)
(-0.908103 0 0)
(-0.912597 0 0)
(-0.916941 0 0)
(-0.921138 0 0)
(-0.925191 0 0)
(-0.929103 0 0)
(-0.932879 0 0)
(-0.93652 0 0)
(-0.94003 0 0)
(-0.943412 0 0)
(-0.946669 0 0)
(-0.949802 0 0)
(-0.952816 0 0)
(-0.955711 0 0)
(-0.958492 0 0)
(-0.96116 0 0)
(-0.963717 0 0)
(-0.966167 0 0)
(-0.96851 0 0)
(-0.970749 0 0)
(-0.972887 0 0)
(-0.974925 0 0)
(-0.976865 0 0)
(-0.97871 0 0)
(-0.98046 0 0)
(-0.982118 0 0)
(-0.983686 0 0)
(-0.985165 0 0)
(-0.986556 0 0)
(-0.987863 0 0)
(-0.989085 0 0)
(-0.990225 0 0)
(-0.991285 0 0)
(-0.992264 0 0)
(-0.993166 0 0)
(-0.993991 0 0)
(-0.994742 0 0)
(-0.995418 0 0)
(-0.996021 0 0)
(-0.996553 0 0)
(-0.997015 0 0)
(-0.997408 0 0)
(-0.997733 0 0)
(-0.997991 0 0)
(-0.998184 0 0)
(-0.998312 0 0)
(-0.998377 0 0)
(-0.998379 0 0)
(-0.99832 0 0)
(-0.9982 0 0)
(-0.998021 0 0)
(-0.997784 0 0)
(-0.997488 0 0)
(-0.997137 0 0)
(-0.996729 0 0)
(-0.996266 0 0)
(-0.995749 0 0)
(-0.995179 0 0)
(-0.994557 0 0)
(-0.993882 0 0)
(-0.993157 0 0)
(-0.992382 0 0)
(-0.991557 0 0)
(-0.990683 0 0)
(-0.989761 0 0)
(-0.988792 0 0)
(-0.987777 0 0)
(-0.986715 0 0)
(-0.985608 0 0)
(-0.984456 0 0)
(-0.983261 0 0)
(-0.982022 0 0)
(-0.98074 0 0)
(-0.979415 0 0)
(-0.97805 0 0)
(-0.976643 0 0)
(-0.975195 0 0)
(-0.973708 0 0)
(-0.972181 0 0)
(-0.970615 0 0)
(-0.969011 0 0)
(-0.967369 0 0)
(-0.965689 0 0)
(-0.963973 0 0)
(-0.96222 0 0)
(-0.960431 0 0)
(-0.958607 0 0)
(-0.956747 0 0)
(-0.954853 0 0)
(-0.952925 0 0)
(-0.950964 0 0)
(-0.948969 0 0)
(-0.946941 0 0)
(-0.94488 0 0)
(-0.942788 0 0)
(-0.940664 0 0)
(-0.938509 0 0)
(-0.936322 0 0)
(-0.934106 0 0)
(-0.931859 0 0)
(-0.929582 0 0)
(-0.927276 0 0)
(-0.924941 0 0)
(-0.922577 0 0)
(-0.920185 0 0)
(-0.917765 0 0)
(-0.915317 0 0)
(-0.912842 0 0)
(-0.91034 0 0)
(-0.907811 0 0)
(-0.905256 0 0)
(-0.902674 0 0)
(-0.900067 0 0)
(-0.897434 0 0)
(-0.894776 0 0)
(-0.892094 0 0)
(-0.889386 0 0)
(-0.886654 0 0)
(-0.883898 0 0)
(-0.881119 0 0)
(-0.878315 0 0)
(-0.875489 0 0)
(-0.872639 0 0)
(-0.869767 0 0)
(-0.866872 0 0)
(-0.863955 0 0)
(-0.861016 0 0)
(-0.858056 0 0)
(-0.855073 0 0)
(-0.85207 0 0)
(-0.849045 0 0)
(-0.846 0 0)
(-0.842934 0 0)
(-0.839847 0 0)
(-0.836741 0 0)
(-0.833614 0 0)
(-0.830468 0 0)
(-0.827303 0 0)
(-0.824118 0 0)
(-0.820914 0 0)
(-0.817691 0 0)
(-0.81445 0 0)
(-0.81119 0 0)
(-0.807911 0 0)
(-0.804615 0 0)
(-0.801301 0 0)
(-0.797969 0 0)
(-0.79462 0 0)
(-0.791253 0 0)
(-0.787869 0 0)
(-0.784468 0 0)
(-0.781051 0 0)
(-0.777617 0 0)
(-0.774166 0 0)
(-0.770699 0 0)
(-0.767216 0 0)
(-0.763718 0 0)
(-0.760203 0 0)
(-0.756673 0 0)
(-0.753127 0 0)
(-0.749566 0 0)
(-0.745991 0 0)
(-0.7424 0 0)
(-0.738794 0 0)
(-0.735174 0 0)
(-0.731539 0 0)
(-0.72789 0 0)
(-0.724227 0 0)
(-0.72055 0 0)
(-0.716858 0 0)
(-0.713154 0 0)
(-0.709435 0 0)
(-0.705703 0 0)
(-0.701958 0 0)
(-0.6982 0 0)
(-0.694428 0 0)
(-0.690644 0 0)
(-0.686847 0 0)
(-0.683037 0 0)
(-0.679215 0 0)
(-0.67538 0 0)
(-0.671533 0 0)
(-0.667674 0 0)
(-0.663803 0 0)
(-0.659921 0 0)
(-0.656026 0 0)
(-0.65212 0 0)
(-0.648202 0 0)
(-0.644273 0 0)
(-0.640333 0 0)
(-0.636382 0 0)
(-0.632419 0 0)
(-0.628446 0 0)
(-0.624462 0 0)
(-0.620467 0 0)
(-0.616462 0 0)
(-0.612446 0 0)
(-0.60842 0 0)
(-0.604383 0 0)
(-0.600337 0 0)
(-0.59628 0 0)
(-0.592214 0 0)
(-0.588138 0 0)
(-0.584052 0 0)
(-0.579957 0 0)
(-0.575852 0 0)
(-0.571737 0 0)
(-0.567614 0 0)
(-0.563481 0 0)
(-0.559339 0 0)
(-0.555188 0 0)
(-0.551029 0 0)
(-0.54686 0 0)
(-0.542683 0 0)
(-0.538498 0 0)
(-0.534303 0 0)
(-0.530101 0 0)
(-0.52589 0 0)
(-0.521671 0 0)
(-0.517444 0 0)
(-0.513209 0 0)
(-0.508966 0 0)
(-0.504715 0 0)
(-0.500456 0 0)
(-0.49619 0 0)
(-0.491916 0 0)
(-0.487634 0 0)
(-0.483346 0 0)
(-0.47905 0 0)
(-0.474746 0 0)
(-0.470436 0 0)
(-0.466119 0 0)
(-0.461794 0 0)
(-0.457463 0 0)
(-0.453125 0 0)
(-0.44878 0 0)
(-0.444429 0 0)
(-0.440071 0 0)
(-0.435706 0 0)
(-0.431336 0 0)
(-0.426959 0 0)
(-0.422575 0 0)
(-0.418186 0 0)
(-0.41379 0 0)
(-0.409389 0 0)
(-0.404982 0 0)
(-0.400568 0 0)
(-0.39615 0 0)
(-0.391725 0 0)
(-0.387295 0 0)
(-0.382859 0 0)
(-0.378418 0 0)
(-0.373972 0 0)
(-0.36952 0 0)
(-0.365063 0 0)
(-0.360601 0 0)
(-0.356133 0 0)
(-0.351661 0 0)
(-0.347184 0 0)
(-0.342702 0 0)
(-0.338215 0 0)
(-0.333724 0 0)
(-0.329228 0 0)
(-0.324727 0 0)
(-0.320222 0 0)
(-0.315713 0 0)
(-0.311199 0 0)
(-0.306681 0 0)
(-0.302158 0 0)
(-0.297632 0 0)
(-0.293101 0 0)
(-0.288567 0 0)
(-0.284028 0 0)
(-0.279486 0 0)
(-0.274939 0 0)
(-0.27039 0 0)
(-0.265836 0 0)
(-0.261279 0 0)
(-0.256718 0 0)
(-0.252154 0 0)
(-0.247587 0 0)
(-0.243016 0 0)
(-0.238442 0 0)
(-0.233864 0 0)
(-0.229284 0 0)
(-0.2247 0 0)
(-0.220114 0 0)
(-0.215524 0 0)
(-0.210932 0 0)
(-0.206337 0 0)
(-0.201739 0 0)
(-0.197139 0 0)
(-0.192535 0 0)
(-0.18793 0 0)
(-0.183322 0 0)
(-0.178711 0 0)
(-0.174098 0 0)
(-0.169483 0 0)
(-0.164865 0 0)
(-0.160246 0 0)
(-0.155624 0 0)
(-0.151 0 0)
(-0.146374 0 0)
(-0.141747 0 0)
(-0.137117 0 0)
(-0.132486 0 0)
(-0.127853 0 0)
(-0.123218 0 0)
(-0.118582 0 0)
(-0.113944 0 0)
(-0.109304 0 0)
(-0.104663 0 0)
(-0.100021 0 0)
(-0.0953778 0 0)
(-0.090733 0 0)
(-0.0860872 0 0)
(-0.0814401 0 0)
(-0.0767921 0 0)
(-0.072143 0 0)
(-0.067493 0 0)
(-0.0628421 0 0)
(-0.0581904 0 0)
(-0.0535379 0 0)
(-0.0488848 0 0)
(-0.044231 0 0)
(-0.0395766 0 0)
(-0.0349218 0 0)
(-0.0302665 0 0)
(-0.0256107 0 0)
(-0.0209547 0 0)
(-0.0162984 0 0)
(-0.0116418 0 0)
(-0.00698517 0 0)
(-0.0023284 0 0)
)
;

boundaryField
{
    left
    {
        type            fixedValue;
        value           uniform (0 0 0);
    }
    right
    {
        type            fixedValue;
        value           uniform (0 0 0);
    }
    frontBackUpDown
    {
        type            empty;
    }
}


// ************************************************************************* //
