/*--------------------------------*- C++ -*----------------------------------*\
| =========                 |                                                 |
| \\      /  F ield         | OpenFOAM: The Open Source CFD Toolbox           |
|  \\    /   O peration     | Version:  2412                                  |
|   \\  /    A nd           | Website:  www.openfoam.com                      |
|    \\/     M anipulation  |                                                 |
\*---------------------------------------------------------------------------*/
FoamFile
{
    version     2.0;
    format      ascii;
    arch        "LSB;label=32;scalar=64";
    class       volScalarField;
    location    "0.09";
    object      epsilon;
}
// * * * * * * * * * * * * * * * * * * * * * * * * * * * * * * * * * * * * * //

dimensions      [0 2 -3 0 0 0 0];

internalField   nonuniform List<scalar> 
12225
(
448.248
622.893
830.553
1004.82
1150.39
1270.2
1368.6
1449.6
1516.33
1571.33
1616.69
1654.07
1684.75
1709.75
1729.86
1745.52
1757.3
1768.57
173.744
302.084
403.101
480.176
539.341
585.693
622.131
650.853
673.563
691.527
705.708
716.856
725.563
732.292
737.443
741.25
744.466
744.092
119.435
232.402
315.511
376.254
421.16
455.027
480.627
499.956
514.528
525.455
533.56
539.471
543.675
546.555
548.437
549.569
550.35
549.831
97.6415
199.979
277.776
334.832
376.772
407.858
430.862
447.787
460.142
469.04
475.306
479.565
482.297
483.88
484.628
484.805
484.733
484.211
83.6528
176.289
251.577
308.549
351.1
382.721
406.065
423.141
435.483
444.241
450.281
454.263
456.693
457.971
458.426
458.34
458.012
457.482
71.992
153.973
226.311
283.824
328.196
361.837
387.036
405.701
419.347
429.147
436.007
440.629
443.558
445.225
445.985
446.14
445.973
445.59
61.3444
131.282
198.626
255.579
301.541
337.587
365.352
386.461
402.308
414.032
422.547
428.579
432.706
435.392
437.015
437.895
438.303
438.352
51.6699
108.731
168.488
222.631
268.754
306.561
336.802
360.613
379.126
393.349
404.139
412.21
418.146
422.426
425.445
427.534
428.952
429.798
43.2227
87.6458
137.686
186.325
230.299
268.243
299.985
326.02
347.077
363.919
377.262
387.744
395.911
402.229
407.088
410.814
413.652
415.675
36.1699
69.2416
108.632
149.502
188.755
224.543
256
282.982
305.741
324.706
340.368
353.214
363.7
372.232
379.165
384.798
389.351
392.859
30.4986
54.1387
83.3288
115.314
147.815
179.114
208.067
234.096
257.029
276.947
294.067
308.676
321.085
331.596
340.492
348.015
354.346
359.461
26.3767
43.1976
64.2833
88.2397
113.648
139.256
164.042
187.305
208.654
227.923
245.105
260.294
273.643
285.331
295.546
304.456
312.179
318.622
23.1426
34.7468
49.3136
66.2695
84.8764
104.388
124.081
143.352
161.759
179.02
194.98
209.581
222.838
234.808
245.577
255.233
263.824
271.194
20.3783
27.6946
36.7525
47.428
59.4467
72.4855
86.1761
100.146
114.065
127.67
140.763
153.21
164.928
175.878
186.052
195.453
204.065
211.683
18.15
22.2408
27.1492
32.9146
39.4906
46.7973
54.7192
63.1093
71.8102
80.6712
89.557
98.3523
106.963
115.316
123.359
131.046
138.322
144.984
16.4707
18.3569
20.5276
23.0288
25.875
29.0698
32.6054
36.4572
40.5872
44.9497
49.4954
54.1741
58.9368
63.7378
68.5352
73.2894
77.952
82.3901
15.3282
15.8731
16.496
17.2135
18.0332
18.9614
20.0044
21.1653
22.4437
23.8359
25.3357
26.9349
28.6228
30.3855
32.2091
34.0799
35.9802
37.8678
14.7508
14.6758
14.6369
14.6353
14.6698
14.7397
14.845
14.9862
15.1632
15.3761
15.6245
15.908
16.2255
16.5776
16.9634
17.3807
17.827
18.2979
14.8977
14.9732
15.0872
15.2434
15.4417
15.682
15.9646
16.2896
16.6558
17.0619
17.5056
17.9843
18.4951
19.0346
19.5993
20.1853
20.7883
21.3945
15.9707
17.2605
18.7263
20.3952
22.2733
24.3601
26.6486
29.1232
31.76
34.5302
37.4029
40.3465
43.3303
46.3255
49.3065
52.2501
55.1317
57.8913
18.0496
21.9968
26.6899
32.1479
38.3082
45.0748
52.324
59.9097
67.6807
75.497
83.2367
90.799
98.1048
105.095
111.73
117.983
123.836
129.243
21.5631
30.6527
41.9207
55.0369
69.4958
84.7794
100.377
115.829
130.771
144.942
158.178
170.386
181.533
191.629
200.713
208.839
216.071
222.45
27.2185
45.3003
67.7861
92.937
119.104
144.999
169.641
192.388
212.916
231.13
247.078
260.898
272.772
282.899
291.481
298.708
304.756
309.783
35.7144
67.6763
105.678
144.95
182.515
216.74
246.816
272.569
294.224
312.183
326.906
338.85
348.438
356.049
362.007
366.594
370.048
372.596
47.4078
97.6109
152.029
202.688
246.852
283.885
314.07
338.196
357.201
371.971
383.284
391.8
398.064
402.523
405.539
407.406
408.367
408.656
61.888
131.751
198.704
254.805
299.833
335.068
362.11
382.557
397.798
408.96
416.938
422.437
426.011
428.09
429.013
429.043
428.394
427.283
78.467
165.761
239.652
296.704
339.786
371.975
395.786
413.193
425.728
434.563
440.581
444.452
446.683
447.664
447.692
446.998
445.764
444.178
99.5997
200.965
279.478
337.821
380.456
411.807
434.889
451.766
463.982
472.693
478.747
482.777
485.255
486.544
486.922
486.603
485.755
484.547
144.791
258.315
348.614
417.598
468.466
506.749
535.874
558.052
574.955
587.829
597.587
604.912
610.328
614.24
616.964
618.752
619.794
620.294
366.941
498.483
666.585
808.03
923.45
1016.69
1091.72
1152.38
1201.66
1241.83
1274.68
1301.62
1323.79
1342.06
1357.15
1369.64
1379.94
1388.51
2.04244
2.08995
3.02502
3.78052
4.34616
4.75996
5.1907
5.68043
6.2164
6.82135
7.53388
8.43552
9.7447
11.3419
13.2027
15.3126
17.6744
20.29
23.1553
26.2611
29.5974
33.157
36.9387
40.9508
45.1488
49.4965
53.9762
58.5732
63.2755
68.073
72.9577
77.9233
82.9655
88.0811
93.2681
98.5257
103.853
109.251
114.719
120.259
125.87
131.552
137.306
143.132
149.028
154.994
161.029
167.131
173.296
179.524
185.81
192.152
198.545
204.985
211.468
217.988
224.541
231.122
237.724
244.341
250.968
257.597
264.224
270.841
277.442
284.022
290.577
297.106
303.612
310.105
316.612
323.102
329.505
335.823
342.053
348.191
354.231
360.166
365.989
371.693
377.271
382.716
388.021
393.18
398.186
403.034
407.717
412.23
416.567
420.725
424.697
428.479
432.068
435.46
438.65
441.637
444.417
446.989
449.349
451.497
453.431
455.151
456.656
457.946
459.022
459.886
460.537
460.979
461.214
461.244
461.074
460.705
460.144
459.394
458.46
457.349
456.065
454.616
453.007
451.246
449.339
447.293
445.117
442.817
440.401
437.877
435.251
432.53
429.722
426.833
423.868
420.834
417.733
414.572
411.353
408.076
404.747
401.362
397.92
394.426
390.868
387.252
383.616
380.213
379.075
379.474
380.082
380.772
381.517
382.3
383.102
383.905
384.687
385.422
386.086
386.649
387.079
387.343
387.406
387.231
386.782
386.022
384.914
383.423
381.518
379.167
376.345
373.029
369.201
364.844
359.945
354.491
348.463
341.831
334.541
326.48
317.399
306.668
293.469
277.384
6.36496
3.7094
3.30921
3.37005
3.63728
4.07189
4.65643
5.40048
6.27666
7.29497
8.45964
9.77036
11.2213
12.7799
14.4175
16.1144
17.8578
19.6388
21.4498
23.2854
25.1422
27.0188
28.915
30.8305
32.7627
34.7107
36.6755
38.6584
40.6607
42.6837
44.7287
46.7967
48.8886
51.0052
53.1472
55.315
57.5091
59.7296
61.9768
64.2505
66.5508
68.8772
71.2295
73.6071
76.0094
78.4356
80.885
83.3565
85.849
88.3615
90.8925
93.4408
96.0048
98.583
101.174
103.775
106.386
109.004
111.627
114.254
116.882
119.509
122.133
124.754
127.368
129.976
132.576
135.17
137.761
140.354
142.961
145.585
148.187
150.76
153.302
155.811
158.284
160.719
163.112
165.462
167.765
170.02
172.223
174.372
176.465
178.499
180.473
182.384
184.229
186.008
187.718
189.357
190.924
192.417
193.835
195.177
196.441
197.626
198.731
199.757
200.701
201.563
202.344
203.042
203.659
204.193
204.646
205.017
205.308
205.52
205.652
205.707
205.685
205.589
205.419
205.178
204.868
204.49
204.047
203.541
202.974
202.35
201.67
200.938
200.155
199.325
198.45
197.533
196.576
195.583
194.554
193.492
192.399
191.277
190.127
188.95
187.748
186.52
185.266
183.991
182.685
181.363
180.063
178.874
178.114
177.649
177.258
176.881
176.5
176.104
175.684
175.231
174.737
174.192
173.586
172.907
172.144
171.287
170.322
169.238
168.024
166.668
165.161
163.493
161.656
159.645
157.454
155.083
152.532
149.801
146.897
143.825
140.592
137.209
133.686
130.041
126.298
122.578
119.716
120.39
11.3896
5.7067
4.81584
4.77987
5.0866
5.57467
6.22736
7.04426
8.01761
9.13195
10.3623
11.6782
13.0487
14.4467
15.8544
17.2634
18.6724
20.0829
21.4982
22.9212
24.355
25.8022
27.2646
28.7435
30.2396
31.7533
33.285
34.8351
36.4036
37.9905
39.5957
41.2192
42.8609
44.5209
46.1991
47.8956
49.6104
51.3436
53.0951
54.865
56.653
58.4591
60.2831
62.1246
63.9834
65.859
67.7508
69.6584
71.5811
73.5181
75.4687
77.432
79.4072
81.3931
83.3889
85.3933
87.4053
89.4237
91.4474
93.4751
95.5056
97.5379
99.571
101.604
103.636
105.667
107.697
109.726
111.756
113.787
115.821
117.847
119.857
121.847
123.815
125.757
127.672
129.559
131.414
133.236
135.023
136.773
138.483
140.153
141.781
143.363
144.9
146.389
147.828
149.216
150.552
151.834
153.061
154.232
155.346
156.401
157.397
158.333
159.209
160.022
160.774
161.464
162.091
162.655
163.156
163.594
163.97
164.283
164.534
164.723
164.851
164.92
164.929
164.879
164.773
164.611
164.394
164.124
163.802
163.431
163.011
162.545
162.034
161.48
160.886
160.253
159.583
158.879
158.141
157.372
156.574
155.748
154.896
154.019
153.12
152.196
151.254
150.29
149.304
148.307
147.295
146.278
145.275
144.332
143.532
142.838
142.183
141.533
140.873
140.194
139.488
138.749
137.971
137.146
136.267
135.326
134.316
133.229
132.056
130.791
129.424
127.95
126.361
124.653
122.822
120.863
118.777
116.564
114.225
111.766
109.193
106.513
103.738
100.88
97.9569
94.9948
92.0363
89.2007
86.7888
85.9546
16.6915
7.94878
6.64753
6.50235
6.73055
7.18608
7.8222
8.61739
9.55234
10.6026
11.7386
12.9294
14.1488
15.3782
16.6086
17.8382
19.0698
20.3081
21.5575
22.8219
24.1038
25.405
26.7263
28.0679
29.4298
30.8117
32.2131
33.6336
35.0727
36.5301
38.0053
39.4982
41.0085
42.5361
44.0811
45.6433
47.223
48.8201
50.4346
52.0666
53.7161
55.383
57.0673
58.7687
60.4871
62.2221
63.9735
65.7408
67.5234
69.321
71.1327
72.958
74.796
76.6459
78.5069
80.3779
82.258
84.1462
86.0415
87.9427
89.8488
91.7589
93.6718
95.5868
97.503
99.4198
101.336
103.253
105.167
107.08
108.988
110.883
112.763
114.625
116.465
118.281
120.072
121.836
123.57
125.272
126.942
128.576
130.173
131.731
133.249
134.725
136.156
137.543
138.882
140.173
141.414
142.605
143.743
144.828
145.859
146.835
147.755
148.617
149.423
150.171
150.86
151.49
152.061
152.572
153.024
153.417
153.75
154.025
154.24
154.398
154.497
154.54
154.526
154.457
154.333
154.156
153.927
153.647
153.318
152.94
152.516
152.048
151.536
150.982
150.389
149.758
149.091
148.389
147.655
146.89
146.097
145.275
144.428
143.557
142.663
141.745
140.811
139.859
138.89
137.908
136.915
135.917
134.928
133.97
133.07
132.218
131.385
130.553
129.709
128.845
127.957
127.037
126.081
125.083
124.035
122.933
121.77
120.538
119.232
117.845
116.371
114.803
113.138
111.37
109.497
107.517
105.43
103.236
100.939
98.5443
96.0583
93.4902
90.8513
88.156
85.4232
82.6814
79.9744
77.3979
75.1353
73.6779
21.4506
10.2254
8.47614
8.11727
8.23557
8.61344
9.17607
9.88738
10.7212
11.6523
12.6549
13.705
14.784
15.8797
16.9868
18.105
19.2366
20.385
21.5531
22.7432
23.9565
25.1937
26.4549
27.7399
29.0481
30.3789
31.7318
33.1063
34.5017
35.9177
37.354
38.8101
40.286
41.7815
43.2966
44.8312
46.3855
47.9594
49.5529
51.1662
52.7992
54.4518
56.1241
57.8159
59.5271
61.2573
63.0063
64.7737
66.559
68.3616
70.1811
72.0166
73.8673
75.7326
77.6113
79.5025
81.4053
83.3184
85.2407
87.1711
89.1084
91.0514
92.9988
94.9494
96.9022
98.8559
100.809
102.761
104.71
106.654
108.588
110.508
112.411
114.295
116.156
117.994
119.804
121.587
123.338
125.057
126.74
128.388
129.996
131.564
133.09
134.572
136.008
137.397
138.737
140.028
141.266
142.452
143.584
144.662
145.683
146.647
147.553
148.401
149.19
149.919
150.588
151.196
151.744
152.23
152.656
153.02
153.324
153.567
153.75
153.872
153.936
153.941
153.888
153.778
153.612
153.39
153.116
152.788
152.409
151.981
151.504
150.981
150.413
149.801
149.148
148.455
147.724
146.958
146.156
145.322
144.459
143.565
142.643
141.699
140.731
139.741
138.733
137.706
136.663
135.606
134.537
133.463
132.391
131.332
130.299
129.286
128.281
127.272
126.251
125.211
124.147
123.054
121.927
120.761
119.55
118.289
116.973
115.595
114.149
112.63
111.032
109.351
107.581
105.72
103.766
101.716
99.5705
97.3323
95.0044
92.5924
90.1037
87.548
84.9373
82.287
79.6171
76.9564
74.3473
71.8673
69.6404
67.8946
25.3526
12.1836
9.99141
9.45446
9.46355
9.75039
10.221
10.831
11.5524
12.3622
13.2402
14.169
15.1351
16.1299
17.1491
18.1917
19.2584
20.3504
21.469
22.6153
23.7895
24.9917
26.2218
27.4794
28.7639
30.0749
31.4119
32.7745
34.1621
35.5745
37.0113
38.4723
39.9573
41.4662
42.9989
44.5553
46.1356
47.7396
49.3674
51.0191
52.6945
54.3937
56.1165
57.8628
59.6325
61.4251
63.2405
65.0782
66.9375
68.8181
70.719
72.6396
74.579
76.5361
78.5099
80.4993
82.503
84.5198
86.5483
88.5869
90.6344
92.6891
94.7496
96.8142
98.8813
100.949
103.016
105.081
107.141
109.193
111.231
113.254
115.258
117.24
119.198
121.129
123.031
124.901
126.738
128.539
130.302
132.025
133.706
135.342
136.933
138.475
139.968
141.41
142.799
144.134
145.413
146.635
147.799
148.903
149.947
150.931
151.851
152.71
153.504
154.235
154.902
155.504
156.04
156.512
156.918
157.26
157.536
157.748
157.895
157.979
157.999
157.957
157.853
157.688
157.464
157.181
156.84
156.443
155.991
155.486
154.929
154.322
153.667
152.965
152.217
151.427
150.597
149.727
148.819
147.876
146.902
145.897
144.863
143.802
142.717
141.608
140.478
139.329
138.163
136.981
135.786
134.583
133.375
132.171
130.975
129.786
128.597
127.4
126.191
124.963
123.711
122.433
121.123
119.776
118.388
116.954
115.469
113.927
112.323
110.653
108.91
107.092
105.194
103.213
101.147
98.9952
96.7587
94.4397
92.0421
89.5718
87.037
84.4477
81.8168
79.1604
76.4992
73.8615
71.2869
68.8391
66.6043
64.7033
30.8559
14.0567
11.2445
10.4913
10.3813
10.5757
10.9574
11.474
12.0962
12.8035
13.5798
14.4122
15.2906
16.2083
17.161
18.1467
19.1646
20.2147
21.2972
22.412
23.5592
24.7386
25.9502
27.1935
28.4684
29.7745
31.1115
32.4793
33.8774
35.3058
36.7642
38.2524
39.7704
41.3179
42.895
44.5016
46.1376
47.8031
49.4981
51.2224
52.976
54.7589
56.5709
58.4117
60.2811
62.1788
64.1042
66.0569
68.0362
70.0414
72.0715
74.1257
76.2029
78.3017
80.4211
82.5594
84.7154
86.8872
89.0734
91.2721
93.4814
95.6996
97.9245
100.154
102.387
104.62
106.852
109.079
111.301
113.51
115.703
117.878
120.031
122.159
124.259
126.329
128.367
130.368
132.332
134.256
136.136
137.972
139.76
141.5
143.187
144.822
146.401
147.923
149.387
150.791
152.133
153.413
154.628
155.778
156.862
157.879
158.827
159.707
160.518
161.258
161.929
162.529
163.058
163.517
163.904
164.221
164.467
164.643
164.75
164.787
164.755
164.656
164.49
164.257
163.96
163.599
163.176
162.692
162.148
161.546
160.887
160.174
159.409
158.593
157.726
156.813
155.857
154.859
153.819
152.741
151.629
150.482
149.303
148.096
146.861
145.6
144.316
143.011
141.686
140.344
138.987
137.617
136.24
134.858
133.475
132.09
130.7
129.299
127.885
126.452
124.997
123.516
122.005
120.46
118.877
117.252
115.58
113.856
112.075
110.234
108.327
106.351
104.304
102.181
99.9827
97.708
95.3582
92.936
90.4461
87.8948
85.2907
82.6444
79.9695
77.2824
74.604
71.9616
69.3914
66.9455
64.6849
62.6789
35.8929
15.6199
12.1942
11.2244
10.9992
11.1097
11.4157
11.8565
12.4005
13.0285
13.7269
14.4853
15.296
16.1532
17.0528
17.9923
18.9701
19.9855
21.0379
22.1271
23.2531
24.4157
25.6151
26.8511
28.1238
29.4332
30.7794
32.1623
33.582
35.0383
36.5313
38.0609
39.6272
41.23
42.8694
44.5453
46.2577
48.0066
49.7919
51.6134
53.4712
55.365
57.2946
59.2596
61.2596
63.2942
65.3628
67.4646
69.5988
71.7643
73.9602
76.1852
78.4379
80.7169
83.0204
85.3468
87.6942
90.0607
92.4442
94.8424
97.2532
99.6741
102.103
104.537
106.974
109.411
111.845
114.275
116.693
119.096
121.481
123.842
126.179
128.486
130.761
133.001
135.204
137.366
139.484
141.556
143.58
145.552
147.47
149.333
151.138
152.883
154.565
156.184
157.737
159.224
160.641
161.989
163.265
164.469
165.6
166.655
167.636
168.541
169.37
170.121
170.796
171.393
171.912
172.353
172.717
173.004
173.213
173.346
173.402
173.383
173.289
173.12
172.879
172.566
172.182
171.728
171.206
170.618
169.965
169.248
168.468
167.63
166.735
165.784
164.78
163.725
162.621
161.471
160.276
159.04
157.764
156.451
155.103
153.723
152.312
150.873
149.408
147.919
146.408
144.877
143.328
141.765
140.189
138.604
137.011
135.41
133.8
132.178
130.541
128.886
127.209
125.507
123.778
122.018
120.222
118.388
116.51
114.586
112.611
110.582
108.493
106.344
104.13
101.85
99.5032
97.0902
94.6124
92.0733
89.4777
86.8327
84.1472
81.4324
78.702
75.9728
73.2652
70.6051
68.0248
65.5669
63.2745
61.1884
40.0141
16.8076
12.8452
11.6817
11.3542
11.394
11.64
12.0231
12.5091
13.0785
13.7188
14.4213
15.1795
15.9883
16.8441
17.7444
18.6875
19.6724
20.6984
21.7656
22.8738
24.0233
25.2145
26.4476
27.7233
29.0417
30.4034
31.8086
33.2576
34.7508
36.2883
37.8702
39.4968
41.1681
42.8841
44.645
46.4506
48.3011
50.1961
52.1357
54.1197
56.1476
58.2192
60.334
62.4913
64.6906
66.9309
69.2113
71.5306
73.8877
76.281
78.7089
81.1699
83.6618
86.1828
88.7307
91.3031
93.8977
96.5118
99.1429
101.788
104.445
107.11
109.78
112.453
115.125
117.793
120.454
123.099
125.724
128.326
130.902
133.446
135.957
138.43
140.862
143.25
145.592
147.883
150.12
152.302
154.426
156.488
158.486
160.419
162.284
164.078
165.801
167.451
169.025
170.522
171.941
173.28
174.539
175.716
176.81
177.821
178.748
179.591
180.349
181.022
181.61
182.112
182.529
182.86
183.107
183.269
183.348
183.343
183.255
183.085
182.835
182.505
182.096
181.609
181.047
180.41
179.702
178.922
178.073
177.157
176.177
175.134
174.031
172.869
171.651
170.38
169.058
167.687
166.27
164.81
163.309
161.77
160.194
158.584
156.944
155.274
153.577
151.856
150.113
148.349
146.566
144.769
142.957
141.134
139.299
137.451
135.59
133.713
131.818
129.902
127.963
125.998
124.005
121.98
119.92
117.821
115.681
113.496
111.263
108.979
106.642
104.249
101.8
99.2936
96.7321
94.1173
91.453
88.7449
86.0001
83.2281
80.4403
77.6505
74.8755
72.1348
69.4525
66.8569
64.3825
62.0596
59.9118
43.154
17.6373
13.2355
11.9093
11.4958
11.4781
11.6776
12.0181
12.462
12.9889
13.5865
14.2467
14.9637
15.7334
16.5527
17.4193
18.332
19.2899
20.2929
21.3409
22.4344
23.5742
24.7609
25.9954
27.2786
28.6114
29.9946
31.429
32.9152
34.4538
36.0453
37.6902
39.3889
41.1416
42.9485
44.8097
46.7252
48.6951
50.7192
52.7972
54.9289
57.1138
59.3513
61.6408
63.9815
66.3722
68.812
71.2994
73.8329
76.411
79.0316
81.6929
84.3925
87.128
89.8971
92.6968
95.5245
98.3772
101.252
104.145
107.053
109.974
112.903
115.837
118.773
121.706
124.633
127.547
130.441
133.309
136.15
138.957
141.728
144.458
147.144
149.782
152.369
154.9
157.374
159.787
162.135
164.416
166.627
168.765
170.829
172.816
174.724
176.551
178.295
179.955
181.529
183.016
184.415
185.724
186.941
188.067
189.101
190.042
190.891
191.646
192.307
192.875
193.349
193.73
194.017
194.211
194.313
194.324
194.243
194.072
193.812
193.464
193.03
192.51
191.906
191.22
190.453
189.608
188.685
187.688
186.618
185.477
184.269
182.994
181.656
180.257
178.8
177.287
175.721
174.104
172.44
170.731
168.979
167.188
165.36
163.497
161.601
159.676
157.724
155.746
153.745
151.724
149.683
147.626
145.553
143.466
141.364
139.248
137.114
134.963
132.793
130.6
128.385
126.143
123.874
121.574
119.24
116.871
114.463
112.015
109.524
106.988
104.407
101.78
99.1077
96.3918
93.6352
90.8424
88.0193
85.1736
82.3149
79.4549
76.6072
73.7879
71.0158
68.3125
65.7024
63.2134
60.8663
58.6741
45.3269
18.1481
13.4117
11.9571
11.4743
11.4107
11.5745
11.8833
12.2967
12.7927
13.3586
13.9867
14.6716
15.4098
16.1989
17.0373
17.9241
18.8593
19.8429
20.8758
21.9589
23.0934
24.2807
25.5222
26.8192
28.1734
29.5859
31.0581
32.591
34.1857
35.8431
37.564
39.3489
41.1983
43.1127
45.0921
47.1367
49.2465
51.4212
53.6605
55.9639
58.3308
60.7603
63.2514
65.803
68.4136
71.0818
73.8056
76.5831
79.412
82.2901
85.2146
88.1827
91.1913
94.2375
97.3177
100.429
103.567
106.728
109.909
113.106
116.315
119.532
122.752
125.971
129.186
132.391
135.575
138.732
141.858
144.948
147.999
151.005
153.963
156.869
159.718
162.507
165.233
167.892
170.479
172.993
175.43
177.787
180.062
182.253
184.356
186.371
188.295
190.126
191.864
193.505
195.05
196.498
197.845
199.092
200.237
201.281
202.224
203.064
203.802
204.437
204.971
205.402
205.731
205.958
206.084
206.11
206.037
205.864
205.595
205.228
204.767
204.212
203.565
202.827
202
201.086
200.086
199.004
197.841
196.599
195.281
193.889
192.426
190.894
189.296
187.635
185.913
184.133
182.299
180.413
178.477
176.496
174.471
172.405
170.301
168.162
165.99
163.787
161.557
159.301
157.021
154.72
152.399
150.061
147.706
145.335
142.948
140.544
138.123
135.684
133.225
130.745
128.243
125.716
123.164
120.584
117.975
115.335
112.663
109.957
107.216
104.441
101.632
98.7895
95.9172
93.0182
90.0974
87.1613
84.2177
81.2765
78.3491
75.4488
72.5911
69.7931
67.0743
64.4552
61.9582
59.5968
57.3776
46.5782
18.3815
13.4181
11.8707
11.3353
11.2361
11.3724
11.6573
12.048
12.5214
13.0641
13.6682
14.3287
15.0427
15.8084
16.6248
17.492
18.4105
19.3811
20.4054
21.485
22.6218
23.8179
25.0753
26.3961
27.7824
29.2362
30.7592
32.3531
34.0193
35.7593
37.574
39.4644
41.4313
43.475
45.5959
47.7941
50.0694
52.4216
54.8501
57.3541
59.9326
62.5844
65.3081
68.102
70.9642
73.8924
76.8844
79.9374
83.0486
86.2149
89.4329
92.699
96.0093
99.3601
102.747
106.167
109.615
113.086
116.577
120.082
123.598
127.119
130.642
134.161
137.672
141.162
144.624
148.051
151.438
154.782
158.078
161.319
164.504
167.626
170.682
173.669
176.582
179.418
182.173
184.842
187.425
189.916
192.315
194.619
196.825
198.932
200.938
202.841
204.64
206.333
207.919
209.399
210.768
212.025
213.173
214.209
215.134
215.947
216.65
217.241
217.721
218.09
218.349
218.498
218.538
218.47
218.295
218.013
217.627
217.137
216.544
215.851
215.058
214.168
213.183
212.104
210.934
209.674
208.328
206.897
205.384
203.792
202.123
200.38
198.566
196.684
194.737
192.727
190.659
188.534
186.355
184.127
181.852
179.532
177.171
174.772
172.337
169.868
167.369
164.842
162.289
159.712
157.113
154.495
151.859
149.206
146.536
143.849
141.146
138.427
135.69
132.936
130.163
127.37
124.557
121.723
118.867
115.988
113.086
110.16
107.212
104.24
101.248
98.2371
95.2104
92.1722
89.1279
86.0844
83.0497
80.0337
77.0474
74.1036
71.2165
68.4019
65.6765
63.0576
60.5626
58.1999
55.9719
46.9628
18.3755
13.2927
11.6887
11.1174
10.9922
11.108
11.3753
11.7497
12.2071
12.7337
13.3216
13.9659
14.6642
15.4152
16.219
17.0761
17.9879
18.9563
19.9833
21.0717
22.224
23.4431
24.7318
26.0931
27.5295
29.0438
30.6384
32.3154
34.0769
35.9245
37.8597
39.8837
41.9974
44.2013
46.4956
48.8805
51.3556
53.9203
56.5736
59.3144
62.1412
65.0522
68.0452
71.1179
74.2676
77.4914
80.7861
84.1483
87.5743
91.0601
94.6016
98.1939
101.832
105.512
109.229
112.978
116.754
120.552
124.367
128.194
132.028
135.864
139.697
143.522
147.329
151.103
154.838
158.53
162.173
165.761
169.29
172.756
176.153
179.477
182.724
185.89
188.973
191.968
194.87
197.675
200.381
202.985
205.486
207.88
210.166
212.342
214.406
216.356
218.192
219.912
221.515
223.001
224.367
225.612
226.738
227.744
228.629
229.394
230.038
230.563
230.969
231.255
231.423
231.473
231.406
231.223
230.926
230.515
229.992
229.358
228.615
227.764
226.808
225.748
224.586
223.324
221.965
220.511
218.965
217.328
215.604
213.795
211.904
209.935
207.889
205.771
203.583
201.328
199.01
196.632
194.197
191.708
189.168
186.58
183.948
181.275
178.563
175.815
173.034
170.223
167.383
164.518
161.63
158.721
155.793
152.847
149.884
146.906
143.913
140.905
137.882
134.846
131.795
128.73
125.651
122.558
119.452
116.331
113.198
110.053
106.897
103.731
100.559
97.3839
94.2086
91.0384
87.8791
84.7377
81.6224
78.5427
75.5093
72.5341
69.6301
66.811
64.0912
61.4846
59.0044
56.6554
54.4372
46.5315
18.1623
13.0668
11.4429
10.8531
10.7122
10.8148
11.0709
11.4356
11.8845
12.4036
12.9849
13.6241
14.319
15.0692
15.8752
16.7384
17.661
18.6457
19.6956
20.8143
22.0052
23.2721
24.6187
26.0485
27.5651
29.1718
30.8715
32.6671
34.5608
36.5549
38.651
40.8504
43.1539
45.5621
48.0751
50.6925
53.4135
56.2371
59.1618
62.1855
65.3059
68.5206
71.8263
75.2199
78.6976
82.2554
85.8893
89.5947
93.367
97.2017
101.094
105.037
109.024
113.052
117.113
121.203
125.317
129.448
133.591
137.741
141.893
146.04
150.178
154.3
158.384
162.424
166.414
170.349
174.223
178.031
181.767
185.429
189.009
192.505
195.912
199.226
202.444
205.562
208.576
211.482
214.279
216.962
219.531
221.983
224.316
226.529
228.619
230.586
232.427
234.143
235.732
237.194
238.528
239.732
240.808
241.754
242.572
243.261
243.822
244.254
244.559
244.738
244.79
244.717
244.52
244.2
243.758
243.196
242.515
241.717
240.804
239.776
238.637
237.388
236.031
234.569
233.004
231.339
229.575
227.717
225.766
223.725
221.598
219.388
217.097
214.729
212.287
209.774
207.194
204.55
201.845
199.083
196.267
193.401
190.487
187.528
184.529
181.491
178.418
175.313
172.178
169.016
165.83
162.621
159.393
156.148
152.886
149.61
146.32
143.019
139.707
136.385
133.053
129.714
126.368
123.015
119.658
116.298
112.936
109.575
106.217
102.864
99.5198
96.1886
92.8749
89.5839
86.3219
83.0959
79.9141
76.7855
73.7201
70.7287
67.8228
65.0141
62.3144
59.7347
57.2846
54.9659
52.7764
45.3304
17.7701
12.7676
11.1609
10.5714
10.4268
10.5257
10.7798
11.1449
11.5968
12.1219
12.7125
13.3646
14.0769
14.8495
15.6843
16.5821
17.5461
18.5802
19.6886
20.8755
22.1455
23.5031
24.9529
26.4992
28.1462
29.8977
31.7573
33.7281
35.8127
38.0133
40.3317
42.7688
45.3253
48.0013
50.7962
53.7089
56.738
59.8813
63.1363
66.4999
69.9687
73.5389
77.2062
80.966
84.8134
88.7432
92.75
96.8281
100.972
105.175
109.432
113.735
118.079
122.456
126.862
131.29
135.733
140.186
144.643
149.099
153.547
157.983
162.403
166.778
171.102
175.369
179.572
183.707
187.768
191.75
195.648
199.458
203.175
206.795
210.313
213.727
217.032
220.226
223.305
226.266
229.106
231.823
234.415
236.88
239.216
241.422
243.496
245.438
247.245
248.918
250.455
251.856
253.121
254.249
255.24
256.094
256.811
257.393
257.839
258.149
258.325
258.368
258.278
258.056
257.703
257.221
256.612
255.876
255.015
254.032
252.927
251.703
250.361
248.905
247.336
245.657
243.869
241.977
239.982
237.887
235.696
233.41
231.034
228.57
226.022
223.393
220.686
217.905
215.053
212.134
209.151
206.107
203.006
199.852
196.648
193.397
190.103
186.769
183.397
179.992
176.555
173.091
169.601
166.089
162.558
159.009
155.446
151.869
148.283
144.687
141.084
137.477
133.866
130.254
126.644
123.036
119.434
115.84
112.257
108.688
105.137
101.607
98.1034
94.63
91.1922
87.7959
84.4476
81.1542
77.9236
74.7641
71.6849
68.6954
65.8052
63.0242
60.3616
57.8253
55.4219
53.151
51.0091
43.4064
17.2887
12.4322
10.8675
10.296
10.1629
10.2733
10.5421
10.9266
11.4038
11.961
12.591
13.2905
14.0588
14.8966
15.806
16.7899
17.8521
18.9972
20.23
21.5557
22.9796
24.5069
26.1428
27.8922
29.7596
31.749
33.8641
36.1079
38.4828
40.9904
43.6318
46.4072
49.3164
52.3581
55.5307
58.8317
62.2581
65.8063
69.4721
73.2511
77.138
81.1275
85.2138
89.3908
93.6522
97.9914
102.402
106.876
111.408
115.991
120.617
125.279
129.971
134.685
139.416
144.156
148.901
153.643
158.378
163.1
167.803
172.483
177.109
181.674
186.171
190.597
194.944
199.209
203.386
207.47
211.458
215.344
219.125
222.797
226.356
229.8
233.124
236.325
239.402
242.351
245.17
247.857
250.41
252.828
255.108
257.249
259.251
261.113
262.833
264.41
265.845
267.137
268.286
269.291
270.153
270.872
271.448
271.882
272.173
272.324
272.335
272.206
271.939
271.535
270.996
270.321
269.514
268.576
267.508
266.312
264.991
263.545
261.979
260.292
258.489
256.571
254.542
252.403
250.158
247.809
245.36
242.813
240.172
237.44
234.621
231.717
228.732
225.67
222.534
219.328
216.055
212.719
209.324
205.873
202.369
198.817
195.22
191.581
187.904
184.192
180.448
176.675
172.877
169.058
165.219
161.365
157.498
153.62
149.735
145.846
141.955
138.064
134.178
130.299
126.429
122.573
118.735
114.917
111.124
107.36
103.63
99.9392
96.2921
92.6943
89.1516
85.6701
82.2563
78.9169
75.6593
72.4909
69.4196
66.4533
63.5998
60.8665
58.2601
55.7859
53.4475
51.2428
49.1675
41.1189
16.7844
12.1314
10.6305
10.096
9.99582
10.1432
10.4571
10.8974
11.4429
12.0822
12.8092
13.6216
14.5193
15.5039
16.5781
17.7457
19.0111
20.3793
21.8555
23.4451
25.1537
26.9864
28.9482
31.0434
33.2762
35.6496
38.1662
40.8277
43.6351
46.5884
49.6869
52.9288
56.3119
59.8328
63.4879
67.2725
71.1815
75.2094
79.35
83.597
87.9436
92.3827
96.9071
101.509
106.182
110.918
115.71
120.549
125.429
130.342
135.281
140.24
145.21
150.187
155.163
160.133
165.091
170.032
174.952
179.846
184.703
189.493
194.21
198.85
203.408
207.879
212.259
216.543
220.727
224.807
228.778
232.639
236.383
240.01
243.515
246.895
250.147
253.27
256.261
259.117
261.837
264.418
266.859
269.158
271.315
273.328
275.196
276.918
278.493
279.922
281.203
282.337
283.322
284.16
284.851
285.394
285.79
286.039
286.143
286.102
285.917
285.588
285.118
284.507
283.756
282.867
281.842
280.682
279.389
277.965
276.412
274.732
272.927
271
268.952
266.787
264.508
262.116
259.614
257.007
254.296
251.485
248.577
245.575
242.483
239.304
236.042
232.7
229.281
225.79
222.23
218.606
214.919
211.175
207.377
203.528
199.633
195.695
191.718
187.705
183.659
179.586
175.487
171.368
167.23
163.079
158.917
154.748
150.575
146.403
142.235
138.074
133.925
129.792
125.678
121.59
117.531
113.507
109.522
105.584
101.696
97.8651
94.0973
90.3985
86.775
83.2328
79.7784
76.4181
73.1583
70.0055
66.9659
64.0458
61.2508
58.5859
56.0553
53.6616
51.4059
49.2846
47.2928
38.6018
16.2208
11.8528
10.4586
9.99922
9.97372
10.2067
10.6228
11.1857
11.8766
12.686
13.6096
14.646
15.7961
17.0618
18.4462
19.9529
21.5858
23.3491
25.247
27.2837
29.4627
31.7874
34.2604
36.8839
39.659
42.5862
45.6652
48.8945
52.2723
55.7954
59.4602
63.2623
67.1966
71.2574
75.4386
79.7337
84.1356
88.6372
93.2311
97.9097
102.665
107.49
112.377
117.318
122.305
127.332
132.39
137.473
142.574
147.686
152.803
157.918
163.027
168.122
173.2
178.256
183.284
188.283
193.249
198.162
202.997
207.751
212.419
216.998
221.484
225.873
230.161
234.345
238.42
242.384
246.234
249.965
253.576
257.063
260.424
263.656
266.756
269.723
272.555
275.248
277.803
280.216
282.487
284.614
286.596