/*--------------------------------*- C++ -*----------------------------------*\
| =========                 |                                                 |
| \\      /  F ield         | OpenFOAM: The Open Source CFD Toolbox           |
|  \\    /   O peration     | Version:  2412                                  |
|   \\  /    A nd           | Website:  www.openfoam.com                      |
|    \\/     M anipulation  |                                                 |
\*---------------------------------------------------------------------------*/
FoamFile
{
    version     2.0;
    format      ascii;
    arch        "LSB;label=32;scalar=64";
    class       volScalarField;
    location    "0.09";
    object      k;
}
// * * * * * * * * * * * * * * * * * * * * * * * * * * * * * * * * * * * * * //

dimensions      [0 2 -2 0 0 0 0];

internalField   nonuniform List<scalar> 
12225
(
0.316793
0.394493
0.477906
0.542613
0.593829
0.634374
0.666726
0.692781
0.713881
0.731042
0.745045
0.756483
0.76581
0.773368
0.77942
0.784116
0.787637
0.790998
0.569139
0.788914
0.952581
1.06799
1.1512
1.2127
1.25817
1.2917
1.3163
1.33411
1.3467
1.35525
1.36066
1.36362
1.3647
1.36423
1.36337
1.36114
0.670061
0.972154
1.18323
1.33202
1.43945
1.51861
1.57693
1.61968
1.65077
1.67301
1.68849
1.69878
1.70506
1.70826
1.70915
1.70829
1.70668
1.7045
0.722108
1.07674
1.32651
1.50447
1.63403
1.72971
1.80042
1.85243
1.89038
1.91765
1.93678
1.94965
1.95772
1.96214
1.96382
1.96355
1.9623
1.96069
0.742771
1.1292
1.41224
1.61818
1.77022
1.88337
1.96762
2.03015
2.07624
2.10979
2.13373
2.1503
2.16122
2.16783
2.17124
2.17237
2.17227
2.17164
0.739914
1.13776
1.44637
1.67819
1.85304
1.98505
2.08466
2.15963
2.21576
2.2574
2.28788
2.30973
2.32494
2.33506
2.34139
2.34499
2.3469
2.34783
0.71962
1.1088
1.43133
1.68402
1.88028
2.03177
2.14827
2.23765
2.30593
2.35779
2.39684
2.4259
2.4472
2.46249
2.47324
2.48062
2.48569
2.48905
0.687641
1.05045
1.37183
1.63647
1.84972
2.01924
2.15292
2.25791
2.34007
2.40411
2.45378
2.49209
2.52143
2.54374
2.5606
2.57332
2.5829
2.58986
0.648986
0.972378
1.27661
1.54079
1.76293
1.94591
2.0947
2.21485
2.31144
2.38883
2.45064
2.4999
2.53906
2.57015
2.59484
2.61448
2.63007
2.64199
0.607484
0.884087
1.15747
1.40739
1.62723
1.81571
1.97445
2.10673
2.21626
2.30657
2.38083
2.44182
2.49189
2.53302
2.56689
2.59482
2.61778
2.63598
0.565819
0.793319
1.02684
1.25029
1.45565
1.63914
1.79964
1.93804
2.05632
2.15681
2.24189
2.31379
2.37455
2.42593
2.46948
2.50642
2.53762
2.56304
0.528746
0.712094
0.90518
1.09646
1.27868
1.44749
1.60043
1.73674
1.85685
1.9619
2.05332
2.13265
2.20142
2.26103
2.31277
2.35767
2.39643
2.42869
0.494652
0.637271
0.790583
0.946988
1.10076
1.24803
1.38601
1.51303
1.62846
1.73239
1.82535
1.90815
1.9817
2.04696
2.10485
2.15614
2.20129
2.23963
0.460675
0.562144
0.673146
0.789679
0.907903
1.02494
1.13847
1.24669
1.34843
1.44308
1.53043
1.61056
1.68376
1.75044
1.81107
1.86604
1.91551
1.95848
0.429345
0.492748
0.562799
0.638292
0.717354
0.798321
0.879696
0.960128
1.03852
1.11406
1.18619
1.25457
1.31902
1.37949
1.43602
1.48865
1.53725
1.5806
0.403168
0.435384
0.470977
0.510054
0.552191
0.596858
0.643479
0.691411
0.740009
0.788693
0.836969
0.884428
0.930744
0.975665
1.019
1.06057
1.1001
1.13651
0.384083
0.394609
0.406482
0.419893
0.434846
0.451301
0.469195
0.488419
0.508811
0.530189
0.552358
0.575123
0.598291
0.621651
0.645022
0.668243
0.691108
0.713078
0.374047
0.373709
0.374089
0.375206
0.377036
0.379559
0.382762
0.38663
0.39114
0.396265
0.401969
0.408213
0.414954
0.422166
0.429806
0.437818
0.446134
0.454644
0.376606
0.378924
0.381989
0.385851
0.390484
0.395851
0.401919
0.408643
0.415963
0.423814
0.432125
0.440825
0.449843
0.459111
0.468565
0.478142
0.487768
0.497225
0.394947
0.417779
0.442957
0.470555
0.500295
0.531815
0.564724
0.598591
0.632968
0.667437
0.701632
0.735243
0.768017
0.799756
0.830313
0.859578
0.887429
0.913461
0.427771
0.489066
0.556229
0.628013
0.702578
0.778284
0.853697
0.92756
0.998862
1.06688
1.13113
1.19135
1.24743
1.29937
1.34726
1.39127
1.43156
1.46814
0.47574
0.594973
0.723609
0.855978
0.987194
1.11393
1.23381
1.34522
1.44734
1.53996
1.62328
1.69775
1.764
1.82271
1.87457
1.92028
1.96046
1.99561
0.536846
0.728695
0.928625
1.12373
1.30642
1.47303
1.62183
1.75256
1.86611
1.96393
2.0477
2.1191
2.17972
2.23103
2.27432
2.31074
2.34125
2.36672
0.604141
0.873968
1.14016
1.38239
1.59448
1.77605
1.92883
2.05585
2.16063
2.2466
2.31679
2.37382
2.41993
2.45699
2.48655
2.5099
2.52811
2.54213
0.668315
1.00766
1.31642
1.57532
1.7871
1.95802
2.09448
2.20266
2.288
2.35498
2.4072
2.44757
2.4784
2.50157
2.51857
2.5306
2.53863
2.54353
0.717303
1.09919
1.41419
1.65889
1.84812
1.99399
2.10591
2.19145
2.25649
2.30557
2.34216
2.36896
2.38806
2.4011
2.40935
2.41382
2.41533
2.41461
0.735718
1.11862
1.40734
1.61983
1.77772
1.89573
1.98395
2.04967
2.09826
2.13377
2.15922
2.17689
2.18853
2.19549
2.1988
2.19928
2.19756
2.19424
0.7082
1.04716
1.29075
1.46557
1.59175
1.68428
1.75245
1.80244
1.83877
1.86479
1.88295
1.89508
1.90257
1.90647
1.9076
1.9066
1.90396
1.90015
0.616921
0.862574
1.0489
1.18265
1.27674
1.34491
1.39483
1.43126
1.45767
1.47656
1.48974
1.49855
1.504
1.50684
1.50768
1.50698
1.50508
1.50239
0.33327
0.408789
0.496176
0.564092
0.616606
0.657441
0.6894
0.714709
0.734944
0.751232
0.76442
0.775155
0.78393
0.791128
0.797048
0.801929
0.805946
0.809276
0.0121601
0.0204574
0.0261641
0.030345
0.0332894
0.035362
0.0374725
0.0397955
0.0422593
0.0449549
0.0480299
0.0517968
0.0570286
0.0630833
0.0697787
0.0769937
0.0846803
0.0927966
0.101289
0.110101
0.119181
0.128493
0.13802
0.14777
0.157637
0.167533
0.177425
0.187289
0.19711
0.206876
0.21658
0.226219
0.235793
0.245303
0.254754
0.264149
0.273493
0.282792
0.292051
0.301273
0.310464
0.319626
0.328763
0.337877
0.346968
0.356037
0.365084
0.374109
0.38311
0.392084
0.401028
0.409941
0.418818
0.427655
0.436447
0.44519
0.45388
0.46251
0.471076
0.479571
0.487991
0.496329
0.50458
0.512739
0.520799
0.528758
0.536613
0.544365
0.552019
0.559592
0.567115
0.574559
0.581838
0.588959
0.59592
0.602722
0.609359
0.615826
0.62212
0.628234
0.634164
0.639905
0.645452
0.650801
0.655948
0.660889
0.66562
0.670138
0.67444
0.678522
0.682382
0.686018
0.689427
0.692607
0.695557
0.698276
0.700762
0.703015
0.705035
0.70682
0.708372
0.709691
0.710778
0.711633
0.712259
0.712657
0.71283
0.712779
0.712509
0.712023
0.711324
0.710416
0.709304
0.707993
0.706488
0.704794
0.702918
0.700866
0.698645
0.69626
0.69372
0.691031
0.688201
0.685236
0.682146
0.678936
0.675614
0.672188
0.668663
0.665047
0.661346
0.657564
0.653707
0.64978
0.645785
0.641723
0.637601
0.633413
0.629159
0.624846
0.620458
0.616004
0.61152
0.607244
0.605245
0.604981
0.604944
0.604993
0.605098
0.605242
0.605405
0.605569
0.605712
0.60581
0.605835
0.605759
0.60555
0.605174
0.604596
0.603779
0.602687
0.601279
0.59952
0.597372
0.5948
0.591771
0.588255
0.584224
0.579654
0.574523
0.56881
0.562491
0.555538
0.547908
0.539529
0.530265
0.519823
0.507487
0.492199
0.473467
0.0259329
0.0416479
0.0546484
0.0647703
0.0735387
0.0820904
0.0901869
0.0984223
0.107119
0.116662
0.127119
0.13836
0.150187
0.162362
0.174768
0.187395
0.200295
0.213522
0.227115
0.241091
0.255447
0.27017
0.285235
0.30061
0.316252
0.332122
0.348183
0.3644
0.380741
0.397178
0.413686
0.430245
0.44684
0.463461
0.480101
0.496755
0.513424
0.530108
0.546809
0.563531
0.580276
0.597049
0.613852
0.630687
0.647556
0.664459
0.681396
0.698366
0.715366
0.732393
0.749444
0.766511
0.783591
0.800676
0.817758
0.834829
0.851881
0.868905
0.885891
0.902829
0.919708
0.936519
0.95325
0.969891
0.986431
1.00286
1.01916
1.03533
1.05135
1.06721
1.08286
1.09818
1.11327
1.12814
1.14278
1.1572
1.17137
1.18529
1.19894
1.21233
1.22542
1.23822
1.25071
1.26289
1.27474
1.28625
1.29742
1.30823
1.31868
1.32876
1.33846
1.34777
1.3567
1.36522
1.37333
1.38104
1.38833
1.3952
1.40165
1.40767
1.41326
1.41842
1.42315
1.42743
1.43129
1.43471
1.43769
1.44025
1.44237
1.44407
1.44534
1.4462
1.44664
1.44668
1.44633
1.44558
1.44445
1.44295
1.4411
1.43889
1.43635
1.43348
1.4303
1.42683
1.42308
1.41906
1.41479
1.41028
1.40555
1.40062
1.39549
1.39019
1.38472
1.3791
1.37334
1.36745
1.36144
1.35532
1.34908
1.34275
1.33629
1.32973
1.32314
1.31657
1.31036
1.30437
1.29834
1.29219
1.28588
1.27939
1.27267
1.26568
1.25837
1.25071
1.24263
1.23407
1.22498
1.2153
1.20497
1.19391
1.18207
1.1694
1.15583
1.14133
1.12583
1.10932
1.09177
1.07317
1.0535
1.0328
1.01106
0.988335
0.964645
0.94003
0.91452
0.888147
0.860892
0.832953
0.802238
0.773735
0.0382143
0.0653745
0.0847812
0.09922
0.111776
0.122913
0.133627
0.144611
0.15628
0.16882
0.182197
0.19624
0.210753
0.2256
0.240744
0.256234
0.272155
0.288589
0.305589
0.323176
0.341338
0.360036
0.37922
0.398824
0.418783
0.439029
0.459503
0.480149
0.50092
0.521776
0.542687
0.563629
0.584586
0.605549
0.626512
0.647475
0.668439
0.689409
0.710389
0.731385
0.752403
0.773446
0.79452
0.815628
0.836773
0.857955
0.879174
0.90043
0.921719
0.943037
0.964381
0.985743
1.00712
1.0285
1.04987
1.07123
1.09256
1.11386
1.13511
1.1563
1.17742
1.19846
1.2194
1.24023
1.26094
1.28151
1.30193
1.3222
1.3423
1.36222
1.38186
1.40124
1.42036
1.43921
1.45779
1.47608
1.49407
1.51175
1.52909
1.5461
1.56274
1.57902
1.59491
1.6104
1.62549
1.64014
1.65437
1.66815
1.68147
1.69432
1.7067
1.71859
1.72999
1.74088
1.75126
1.76112
1.77045
1.77926
1.78752
1.79525
1.80243
1.80906
1.81514
1.82067
1.82564
1.83005
1.83391
1.83722
1.83998
1.84219
1.84385
1.84498
1.84557
1.84564
1.84519
1.84423
1.84277
1.84082
1.8384
1.83552
1.83219
1.82842
1.82423
1.81965
1.81467
1.80934
1.80365
1.79763
1.79129
1.78466
1.77776
1.77059
1.76318
1.75555
1.74771
1.73966
1.73144
1.72304
1.71446
1.70576
1.69692
1.68795
1.67888
1.66978
1.66077
1.65178
1.64268
1.6334
1.62389
1.61413
1.60406
1.59364
1.58281
1.57152
1.55971
1.54731
1.53425
1.52047
1.50589
1.49043
1.47403
1.45661
1.43813
1.41851
1.39771
1.3757
1.35246
1.32796
1.30223
1.27527
1.24713
1.21786
1.18752
1.15617
1.12392
1.09087
1.05716
1.0232
0.988871
0.954612
0.049303
0.0905593
0.115022
0.132698
0.146901
0.15959
0.171813
0.184233
0.197252
0.211055
0.225653
0.240957
0.256866
0.273319
0.290318
0.307908
0.326149
0.345086
0.364732
0.385071
0.406055
0.427622
0.449696
0.472199
0.495054
0.518191
0.541547
0.565068
0.588711
0.612439
0.636228
0.660056
0.683913
0.707791
0.731687
0.755603
0.77954
0.803503
0.827497
0.851528
0.875601
0.899721
0.923891
0.948114
0.972393
0.996727
1.02112
1.04556
1.07005
1.09458
1.11916
1.14376
1.16839
1.19303
1.21768
1.24232
1.26693
1.29152
1.31606
1.34054
1.36494
1.38926
1.41347
1.43756
1.46152
1.48533
1.50898
1.53245
1.55573
1.57879
1.60157
1.62407
1.64627
1.66817
1.68975
1.711
1.73191
1.75244
1.7726
1.79235
1.81169
1.8306
1.84906
1.86706
1.88458
1.90161
1.91813
1.93414
1.94961
1.96454
1.97891
1.99272
2.00595
2.01859
2.03064
2.04209
2.05292
2.06313
2.07272
2.08168
2.09
2.09768
2.10472
2.11111
2.11686
2.12195
2.12639
2.13019
2.13334
2.13584
2.1377
2.13893
2.13953
2.1395
2.13886
2.13761
2.13577
2.13335
2.13035
2.12679
2.12269
2.11807
2.11293
2.1073
2.10119
2.09463
2.08763
2.08022
2.0724
2.06422
2.05567
2.04679
2.03759
2.0281
2.01832
2.00826
1.99799
1.9875
1.97678
1.96588
1.95479
1.94353
1.93212
1.92061
1.90905
1.8974
1.88558
1.87353
1.86122
1.84859
1.83561
1.82223
1.80839
1.79403
1.77909
1.7635
1.74719
1.73009
1.71211
1.69319
1.67324
1.65219
1.62999
1.60657
1.58188
1.55589
1.52857
1.49993
1.46997
1.43872
1.40624
1.37258
1.33786
1.30216
1.26563
1.22845
1.19089
1.15345
1.11663
1.08104
0.058267
0.113001
0.142245
0.162069
0.177875
0.191788
0.204969
0.218147
0.23178
0.246125
0.261285
0.277274
0.294069
0.311652
0.330025
0.349203
0.369196
0.39
0.411586
0.433905
0.456889
0.480464
0.504549
0.529068
0.553948
0.579124
0.60454
0.63015
0.655914
0.681802
0.707792
0.733866
0.760013
0.786227
0.812503
0.838843
0.865246
0.891716
0.918256
0.94487
0.971562
0.998334
1.02519
1.05213
1.07915
1.10626
1.13345
1.16072
1.18806
1.21547
1.24294
1.27046
1.29802
1.32561
1.35322
1.38083
1.40843
1.43601
1.46355
1.49102
1.51843
1.54574
1.57295
1.60003
1.62696
1.65374
1.68034
1.70674
1.73293
1.75884
1.78446
1.80976
1.83474
1.85939
1.88367
1.90758
1.93109
1.95419
1.97686
1.99907
2.02082
2.04207
2.06282
2.08305
2.10273
2.12186
2.14042
2.15839
2.17576
2.19252
2.20865
2.22414
2.23898
2.25315
2.26666
2.27948
2.29161
2.30304
2.31377
2.32379
2.33309
2.34166
2.34951
2.35662
2.36301
2.36865
2.37357
2.37774
2.38118
2.38389
2.38587
2.38712
2.38766
2.38748
2.3866
2.38502
2.38276
2.37982
2.37622
2.37197
2.36709
2.36159
2.35549
2.34881
2.34156
2.33378
2.32547
2.31666
2.30736
2.29761
2.28743
2.27683
2.26582
2.25446
2.24277
2.23074
2.21841
2.2058
2.19291
2.17977
2.16639
2.15278
2.13897
2.12499
2.11084
2.09652
2.08198
2.06716
2.05203
2.03655
2.02067
2.00435
1.98753
1.97016
1.95217
1.9335
1.91407
1.8938
1.87263
1.85047
1.82725
1.8029
1.77735
1.75055
1.72245
1.69302
1.66223
1.6301
1.59663
1.56188
1.5259
1.48878
1.45064
1.41162
1.3719
1.33172
1.29143
1.25159
1.21288
1.17627
0.065153
0.131021
0.16397
0.186164
0.203607
0.218676
0.232676
0.246432
0.260485
0.275182
0.290716
0.307183
0.324616
0.343021
0.362388
0.382702
0.403935
0.426046
0.448979
0.472667
0.497037
0.522013
0.547519
0.573486
0.599849
0.626552
0.653546
0.68079
0.70825
0.735899
0.763714
0.791681
0.819788
0.848025
0.876389
0.904875
0.933484
0.962216
0.991071
1.02005
1.04915
1.07839
1.10774
1.13723
1.16684
1.19657
1.22641
1.25637
1.28643
1.31659
1.34684
1.37717
1.40755
1.43799
1.46846
1.49896
1.52945
1.55993
1.59038
1.62077
1.65109
1.68132
1.71144
1.74142
1.77124
1.80089
1.83035
1.85958
1.88857
1.91725
1.94561
1.97362
2.00127
2.02854
2.05541
2.08186
2.10786
2.13341
2.15847
2.18302
2.20705
2.23053
2.25344
2.27577
2.2975
2.3186
2.33907
2.35889
2.37804
2.3965
2.41427
2.43132
2.44765
2.46325
2.47809
2.49219
2.50551
2.51806
2.52983
2.5408
2.55098
2.56036
2.56893
2.57668
2.58362
2.58975
2.59505
2.59953
2.6032
2.60605
2.60808
2.60931
2.60972
2.60934
2.60816
2.60621
2.60347
2.59998
2.59573
2.59075
2.58504
2.57863
2.57153
2.56375
2.55533
2.54627
2.53661
2.52636
2.51552
2.50416
2.4923
2.47994
2.4671
2.45383
2.44015
2.42606
2.4116
2.39678
2.38163
2.36615
2.35037
2.3343
2.31796
2.30137
2.28453
2.26745
2.25007
2.23238
2.21433
2.19589
2.17701
2.15766
2.13778
2.11732
2.09622
2.0744
2.05182
2.02838
2.00402
1.97866
1.95224
1.92468
1.89592
1.86591
1.83461
1.80198
1.76803
1.73275
1.69617
1.65835
1.61937
1.57933
1.53836
1.49664
1.45438
1.41188
1.36952
1.32788
1.28763
1.24972
0.0743081
0.144635
0.180547
0.204782
0.223736
0.239939
0.254785
0.269166
0.283689
0.29877
0.314671
0.331547
0.349472
0.368466
0.388519
0.409597
0.431654
0.454629
0.478457
0.503064
0.52838
0.554333
0.580856
0.607887
0.635372
0.663261
0.691512
0.720089
0.748961
0.778104
0.807498
0.837124
0.866972
0.89703
0.927291
0.95775
0.988404
1.01925
1.05028
1.0815
1.11291
1.1445
1.17627
1.20822
1.24034
1.27262
1.30507
1.33767
1.37042
1.4033
1.43629
1.4694
1.50259
1.53586
1.56919
1.60255
1.63593
1.6693
1.70265
1.73596
1.76919
1.80232
1.83534
1.86821
1.90091
1.93342
1.96571
1.99775
2.02951
2.06093
2.09199
2.12267
2.15294
2.18279
2.2122
2.24114
2.26958
2.29751
2.3249
2.35173
2.37797
2.40361
2.42862
2.45298
2.47667
2.49968
2.52198
2.54357
2.56441
2.5845
2.60382
2.62236
2.64011
2.65704
2.67315
2.68843
2.70287
2.71646
2.72919
2.74105
2.75203
2.76214
2.77135
2.77968
2.78711
2.79364
2.79927
2.804
2.80783
2.81076
2.81279
2.81392
2.81417
2.81352
2.812
2.80961
2.80635
2.80225
2.7973
2.79153
2.78495
2.77757
2.76941
2.7605
2.75082
2.74044
2.72937
2.71763
2.70523
2.69221
2.67859
2.6644
2.64966
2.63439
2.61863
2.60239
2.58569
2.56857
2.55103
2.5331
2.51479
2.49612
2.47711
2.45778
2.43812
2.41814
2.39781
2.3771
2.356
2.33446
2.31245
2.28994
2.26687
2.24319
2.21886
2.19381
2.16797
2.14128
2.11367
2.08508
2.05544
2.02468
1.99275
1.9596
1.9252
1.88953
1.85258
1.81437
1.77494
1.73436
1.69271
1.65012
1.60674
1.56277
1.51845
1.4741
1.43012
1.38707
1.34553
1.30628
0.0821897
0.15431
0.192325
0.218179
0.238455
0.255751
0.27149
0.286592
0.301695
0.31725
0.333565
0.35083
0.369149
0.388563
0.409067
0.430628
0.453195
0.476706
0.501095
0.526294
0.552237
0.578863
0.606112
0.633933
0.662278
0.691106
0.720381
0.75007
0.780148
0.810591
0.841378
0.872493
0.903923
0.935655
0.96768
0.999989
1.03258
1.06544
1.09856
1.13195
1.16559
1.19948
1.23362
1.268
1.30261
1.33744
1.37248
1.40772
1.44315
1.47875
1.51451
1.55041
1.58643
1.62256
1.65876
1.69501
1.7313
1.7676
1.80388
1.84011
1.87627
1.91233
1.94826
1.98403
2.01962
2.05499
2.09013
2.12499
2.15951
2.19365
2.22739
2.26071
2.29359
2.326
2.35791
2.38929
2.42014
2.45041
2.48008
2.50913
2.53753
2.56527
2.59231
2.61864
2.64423
2.66907
2.69314
2.71642
2.73889
2.76053
2.78133
2.80128
2.82036
2.83856
2.85586
2.87225
2.88773
2.90228
2.91589
2.92856
2.94028
2.95104
2.96083
2.96966
2.97751
2.98438
2.99027
2.99518
2.99911
3.00206
3.00402
3.005
3.00501
3.00405
3.00212
2.99924
2.99541
2.99064
2.98494
2.97832
2.9708
2.9624
2.95313
2.94302
2.93207
2.92032
2.90778
2.89449
2.88045
2.8657
2.85027
2.83417
2.81743
2.80009
2.78216
2.76367
2.74464
2.7251
2.70507
2.68457
2.66361
2.64221
2.6204
2.59818
2.57557
2.55256
2.52913
2.50528
2.48099
2.45621
2.43093
2.40511
2.37872
2.3517
2.32401
2.2956
2.2664
2.23637
2.20544
2.17354
2.14063
2.10665
2.07155
2.03529
1.99785
1.95922
1.9194
1.87842
1.83634
1.79322
1.74917
1.70433
1.65887
1.613
1.56699
1.52116
1.4759
1.43174
1.38916
1.34872
0.0883671
0.160475
0.199854
0.22692
0.248303
0.266607
0.283246
0.299127
0.314889
0.330992
0.347758
0.365403
0.384052
0.403764
0.42455
0.446389
0.469238
0.493045
0.517753
0.543304
0.569642
0.596715
0.624475
0.65288
0.68189
0.711471
0.741592
0.772227
0.803352
0.834944
0.866987
0.899462
0.932355
0.965653
0.999344
1.03342
1.06786
1.10267
1.13784
1.17335
1.20919
1.24537
1.28186
1.31866
1.35576
1.39314
1.43079
1.4687
1.50684
1.54519
1.58375
1.62248
1.66136
1.70037
1.73949
1.77867
1.81791
1.85715
1.89639
1.93558
1.97469
2.0137
2.05256
2.09125
2.12973
2.16797
2.20594
2.2436
2.28087
2.31772
2.35413
2.39007
2.42551
2.46043
2.4948
2.5286
2.56179
2.59434
2.62624
2.65745
2.68795
2.71771
2.74671
2.77493
2.80235
2.82894
2.85469
2.87958
2.90359
2.9267
2.9489
2.97017
2.9905
3.00987
3.02827
3.04569
3.06211
3.07754
3.09195
3.10535
3.11772
3.12906
3.13935
3.1486
3.15679
3.16393
3.17001
3.17502
3.17898
3.18187
3.1837
3.18447
3.18419
3.18284
3.18045
3.17701
3.17254
3.16705
3.16054
3.15303
3.14454
3.13507
3.12465
3.11329
3.10101
3.08783
3.07378
3.05887
3.04313
3.02659
3.00927
2.9912
2.97239
2.95289
2.93271
2.91189
2.89044
2.86838
2.84576
2.82257
2.79885
2.77462
2.74988
2.72466
2.69897
2.67281
2.64617
2.61905
2.59142
2.56328
2.5346
2.50535
2.4755
2.44501
2.41385
2.38196
2.34931
2.31583
2.28149
2.24623
2.21
2.17277
2.13449
2.09515
2.05471
2.01319
1.97061
1.92699
1.88241
1.83696
1.79074
1.74391
1.69665
1.64919
1.60179
1.55478
1.50855
1.46354
1.42014
1.37876
0.092934
0.163681
0.203807
0.231721
0.253983
0.273169
0.290653
0.307309
0.323752
0.340427
0.357658
0.375666
0.394594
0.414518
0.435468
0.457441
0.480413
0.504346
0.5292
0.554928
0.58149
0.608845
0.636956
0.66579
0.695317
0.72551
0.756345
0.787799
0.819852
0.852485
0.88568
0.919422
0.953695
0.988485
1.02378
1.05956
1.09582
1.13255
1.16972
1.20734
1.24539
1.28385
1.3227
1.36195
1.40156
1.44151
1.48181
1.52241
1.56329
1.60445
1.64584
1.68744
1.72923
1.77116
1.81322
1.85537
1.89758
1.9398
1.98202
2.02418
2.06625
2.10821
2.15
2.1916
2.23296
2.27406
2.31485
2.35527
2.39524
2.43476
2.47378
2.51228
2.55023
2.5876
2.62436
2.66048
2.69594
2.7307
2.76473
2.79801
2.83051
2.8622
2.89307
2.92308
2.95221
2.98045
3.00778
3.03417
3.05961
3.08408
3.10757
3.13005
3.15153
3.17197
3.19137
3.20971
3.22698
3.24318
3.2583
3.27232
3.28525
3.29707
3.30777
3.31735
3.3258
3.33312
3.3393
3.34435
3.34826
3.35102
3.35265
3.35313
3.35248
3.35069
3.34777
3.34373
3.33857
3.33231
3.32495
3.3165
3.30698
3.29639
3.28477
3.27211
3.25845
3.2438
3.22818
3.21161
3.19412
3.17573
3.15647
3.13636
3.11543
3.0937
3.07121
3.04797
3.02402
2.99938
2.97407
2.94812
2.92154
2.89437
2.86661
2.83829
2.80941
2.78
2.75004
2.71954
2.68848
2.65686
2.62467
2.59188
2.55846
2.5244
2.48965
2.4542
2.41799
2.381
2.34318
2.3045
2.26492
2.22442
2.18296
2.14055
2.09717
2.05284
2.00758
1.96146
1.91455
1.86694
1.81876
1.77018
1.72138
1.67259
1.6241
1.5762
1.52925
1.48365
1.43968
1.39761
0.096032
0.164465
0.204853
0.233305
0.256227
0.276141
0.29437
0.31174
0.328829
0.346057
0.363733
0.382077
0.401241
0.421316
0.442351
0.464365
0.487354
0.511301
0.536181
0.561968
0.588636
0.616156
0.644506
0.673662
0.703604
0.734312
0.765769
0.797958
0.830861
0.864464
0.89875
0.933704
0.969312
1.00556
1.04242
1.0799
1.11796
1.1566
1.1958
1.23554
1.2758
1.31657
1.35782
1.39954
1.4417
1.48428
1.52725
1.5706
1.61428
1.65826
1.70253
1.74704
1.79176
1.83665
1.88168
1.92681
1.97199
2.0172
2.06238
2.1075
2.15252
2.19739
2.24208
2.28655
2.33075
2.37464
2.41819
2.46128
2.50388
2.54597
2.58751
2.62847
2.66883
2.70854
2.74758
2.78591
2.82351
2.86035
2.89639
2.93161
2.96598
2.99947
3.03206
3.06372
3.09444
3.12418
3.15294
3.1807
3.20743
3.23313
3.25777
3.28134
3.30383
3.32522
3.34548
3.36462
3.38262
3.39947
3.41517
3.42971
3.44308
3.45528
3.46629
3.4761
3.48471
3.49211
3.4983
3.50329
3.50707
3.50963
3.51098
3.51111
3.51003
3.50774
3.50424
3.49954
3.49364
3.48656
3.47829
3.46886
3.45826
3.44652
3.43365
3.41966
3.40457
3.38841
3.37118
3.35291
3.33363
3.31335
3.2921
3.26991
3.2468
3.22281
3.19794
3.17225
3.14574
3.11844
3.09039
3.0616
3.03211
3.00192
2.97107
2.93956
2.90743
2.87468
2.84132
2.80735
2.77278
2.7376
2.70181
2.66539
2.62833
2.59061
2.55221
2.51311
2.47329
2.43273
2.39139
2.34926
2.30631
2.26253
2.21792
2.17248
2.12621
2.07915
2.03134
1.98285
1.93376
1.88419
1.83426
1.78416
1.73407
1.68423
1.6349
1.58638
1.53897
1.49303
1.44875
1.40632
0.0977962
0.163302
0.203588
0.232332
0.255719
0.276203
0.295051
0.31304
0.330703
0.34843
0.36651
0.385156
0.404521
0.424709
0.445786
0.46779
0.490738
0.514636
0.53948
0.565261
0.591968
0.619592
0.64812
0.677541
0.707846
0.739022
0.77106
0.803948
0.837674
0.872226
0.907589
0.94375
0.980693
1.0184
1.05686
1.09604
1.13594
1.17653
1.21779
1.2597
1.30223
1.34536
1.38906
1.43331
1.47807
1.52332
1.56903
1.61515
1.66166
1.70852
1.75569
1.80313
1.85079
1.89864
1.94663
1.99471
2.04285
2.09099
2.13909
2.18711
2.23501
2.28272
2.33022
2.37746
2.4244
2.47099
2.51713
2.56277
2.60786
2.65237
2.69628
2.73955
2.78214
2.82402
2.86517
2.90554
2.94511
2.98385
3.02173
3.05871
3.09476
3.12986
3.16399
3.19712
3.22924
3.26032
3.29034
3.31928
3.34714
3.37389
3.39951
3.42401
3.44737
3.46954
3.49051
3.5103
3.52888
3.54624
3.56239
3.57731
3.591
3.60344
3.61463
3.62455
3.63322
3.64061
3.64673
3.65157
3.65513
3.65741
3.6584
3.65812
3.65654
3.65369
3.64955
3.64414
3.63745
3.6295
3.62029
3.60983
3.59812
3.58519
3.57104
3.55568
3.53914
3.52143
3.50257
3.48257
3.46147
3.43927
3.41602
3.39172
3.36641
3.34011
3.31285
3.28465
3.25555
3.22557
3.19474
3.16308
3.13061
3.09737
3.06337
3.02864
2.9932
2.95706
2.92025
2.88277
2.84463
2.80583
2.76638
2.72628
2.68552
2.64409
2.602
2.55922
2.51576
2.47159
2.42672
2.38114
2.33483
2.28782
2.24009
2.19169
2.14262
2.09294
2.04271
1.992
1.94092
1.88958
1.83813
1.78675
1.73563
1.68499
1.6351
1.58621
1.53862
1.4926
1.44829
1.40581
0.0983389
0.160588
0.200521
0.229373
0.253065
0.273976
0.293316
0.311815
0.329966
0.348127
0.366564
0.385481
0.405028
0.425318
0.44643
0.46842
0.491326
0.515173
0.539977
0.56575
0.592498
0.620227
0.648939
0.678635
0.709317
0.740982
0.773627
0.807247
0.841834
0.877379
0.913871
0.951295
0.989637
1.02888
1.069
1.10997
1.15179
1.19441
1.23781
1.28196
1.32684
1.37241
1.41863
1.46547
1.5129
1.56087
1.60935
1.65829
1.70765
1.75739
1.80745
1.8578
1.90838
1.95914
2.01002
2.06099
2.11199
2.16297
2.21388
2.26467
2.3153
2.36571
2.41586
2.46571
2.5152
2.56427
2.6128
2.66076
2.70812
2.75484
2.80089
2.84623
2.89082
2.93463
2.97764
3.0198
3.06109
3.10149
3.14098
3.17948
3.21698
3.25346
3.28889
3.32326
3.35654
3.38873
3.41979
3.44971
3.47847
3.50606
3.53247
3.55768
3.58168
3.60444
3.62596
3.64622
3.66522
3.68295
3.6994
3.71456
3.72842
3.74098
3.75223
3.76216
3.77077
3.77805
3.78399
3.78859
3.79185
3.79377
3.79434
3.79356
3.79143
3.78795
3.78312
3.77694
3.76942
3.76056
3.75036
3.73884
3.726
3.71184
3.69639
3.67965
3.66164
3.64237
3.62186
3.60013
3.57719
3.55308
3.5278
3.50139
3.47387
3.44526
3.4156
3.3849
3.3532
3.32052
3.28689
3.25234
3.21689
3.18058
3.14342
3.10544
3.06668
3.02714
2.98685
2.94584
2.90411
2.86168
2.81855
2.77475
2.73028
2.68514
2.63934
2.59288
2.54578
2.49803
2.44965
2.40065
2.35104
2.30084
2.25009
2.19882
2.14707
2.09492
2.04242
1.98968
1.9368
1.88392
1.83119
1.77878
1.72689
1.67574
1.62556
1.57659
1.52909
1.48327
1.43924
1.39704
0.0977407
0.156648
0.196066
0.224904
0.248786
0.27001
0.289735
0.30865
0.327212
0.345751
0.364515
0.383694
0.403437
0.423861
0.445057
0.467095
0.490028
0.513899
0.538745
0.564594
0.591472
0.619401
0.648397
0.678474
0.709644
0.741914
0.775288
0.809766
0.845347
0.882023
0.919783
0.958615
0.9985
1.03942
1.08135
1.12426
1.16812
1.21291
1.25858
1.3051
1.35242
1.40052
1.44935
1.49885
1.54899
1.59972
1.65098
1.70273
1.75491
1.80748
1.86038
1.91357
1.96696
2.0205
2.07415
2.12784
2.18152
2.23514
2.28864
2.34198
2.3951
2.44795
2.50049
2.55267
2.60443
2.65564
2.70625
2.75623
2.80554
2.85414
2.902
2.94908
2.99535
3.04077
3.0853
3.12893
3.17162
3.21334
3.25407
3.29377
3.3324
3.36996
3.4064
3.44173
3.47591
3.50893
3.54077
3.57141
3.60084
3.62904
3.656
3.68171
3.70615
3.7293
3.75116
3.77171
3.79095
3.80887
3.82545
3.8407
3.85459
3.86713
3.87831
3.88812
3.89655
3.9036
3.90926
3.91353
3.9164
3.91787
3.91794
3.9166
3.91385
3.90968
3.90411
3.89712
3.88873
3.87893
3.86772
3.85511
3.84112
3.82573
3.80897
3.79084
3.77136
3.75054
3.72839
3.70492
3.68017
3.65415
3.62687
3.59836
3.56865
3.53775
3.5057
3.47252
3.43824
3.40288
3.36648
3.32906
3.29065
3.25128
3.21098
3.16977
3.1277
3.08478
3.04104
2.9965
2.9512
2.90515
2.85838
2.8109
2.76274
2.71391
2.66444
2.61434
2.56365
2.51238
2.46056
2.40822
2.35539
2.30213
2.24847
2.19448
2.14021
2.08575
2.03119
1.97663
1.9222
1.86803
1.81427
1.76112
1.70875
1.65737
1.60719
1.55845
1.51132
1.46601
1.42257
1.38099
0.0960555
0.151718
0.190549
0.219316
0.243329
0.2648
0.284843
0.304116
0.32305
0.341952
0.361055
0.38054
0.400555
0.421219
0.442636
0.464897
0.488037
0.512123
0.537213
0.563353
0.590586
0.618947
0.648468
0.679173
0.711084
0.744218
0.778583
0.814186
0.851027
0.889099
0.928392
0.96889
1.01057
1.05341
1.09738
1.14244
1.18856
1.23569
1.28379
1.33281
1.38271
1.43343
1.48492
1.53712
1.58997
1.64343
1.69742
1.75189
1.80678
1.86203
1.91758
1.97337
2.02933
2.0854
2.14151
2.19762
2.25367
2.30959
2.36534
2.42086
2.47609
2.531
2.58553
2.63965
2.69318
2.7461
2.79836
2.84992
2.90073
2.95078
3.00001
3.0484
3.09591
3.1425
3.18816
3.23284
3.27652
3.31918
3.36078
3.40129
3.44069
3.47896
3.51608
3.55202
3.58678
3.62032
3.65263
3.6837
3.71351
3.74205
3.7693
3.79525
3.81989
3.84321
3.86519
3.88583
3.90511
3.92302
3.93956
3.95472
3.96849
3.98086
3.99183
4.00139
4.00952
4.01623
4.02151
4.02534
4.02774
4.02868
4.02817
4.02621
4.02278
4.01788
4.01153
4.0037
3.9944
3.98364
3.97141
3.95771
3.94255
3.92594
3.90788
3.88838
3.86744
3.84509
3.82133
3.79617
3.76963
3.74174
3.7125
3.68194
3.65008
3.61694
3.58256
3.54694
3.51013
3.47215
3.43302
3.39279
3.35147
3.3091
3.26571
3.22133
3.176
3.12975
3.08261
3.03462
2.9858
2.9362
2.88584
2.83475
2.78297
2.73053
2.67747
2.62383
2.56964
2.51495
2.4598
2.40425
2.34836
2.29218
2.23579
2.17926
2.12268
2.06614
2.00976
1.95364
1.89792
1.84274
1.78827
1.73467
1.68214
1.63085
1.581
1.53278
1.48635
1.44186
1.39932
1.35871
0.0933201
0.145669
0.18396
0.212714
0.236887
0.25862
0.278998
0.298656
0.318013
0.337361
0.356924
0.376877
0.397364
0.418507
0.440411
0.463165
0.486846
0.511523
0.537265
0.56413
0.592172
0.621438
0.651971
0.683804
0.716964
0.751474
0.787345
0.824585
0.863192
0.903157
0.944464
0.987092
1.03101
1.07619
1.12258
1.17014
1.21883
1.26858
1.31935
1.37107
1.42368
1.47712
1.53132
1.58622
1.64175
1.69784
1.75443
1.81145
1.86883
1.92651
1.98442
2.04249
2.10066
2.15886
2.21704
2.27513
2.33308
2.39082
2.44832
2.50551
2.56234
2.61877
2.67476
2.73015
2.78489
2.83893
2.89225
2.94481
2.99656
3.04748
3.09753
3.14667
3.19488
3.24212
3.28837
3.3336
3.37778
3.42088
3.46288
3.50376
3.54349
3.58204
3.61941
3.65557
3.6905
3.72419
3.75661
3.78776
3.81762
3.84617
3.87341
3.89932
3.92389
3.9471
3.96895
3.98942
4.00851
4.0262
4.04249
4.05737
4.07082
4.08285
4.09344
4.10259
4.11028
4.11651
4.12128
4.12457
4.12638
4.1267
4.12552
4.12285
4.11867
4.11298
4.10578
4.09706
4.08682
4.07506
4.06177
4.04696
4.03063
4.01278
3.99342
3.97254
3.95016
3.92629
3.90093
3.87409
3.8458
3.81606
3.78488
3.7523
3.71833
3.68299
3.6463
3.6083
3.56899
3.52843
3.48662
3.44361
3.39943
3.35411
3.30768
3.26018
3.21164
3.16212
3.11164
3.06025
3.00799
2.9549
2.90103
2.84641
2.7911
2.73515
2.67861
2.62153
2.56397
2.506
2.44768
2.38909
2.33031
2.27142
2.21252
2.15369
2.09505
2.03671
1.97878
1.92141
1.86473
1.80888
1.75404
1.70035
1.648
1.59716
1.54799
1.50064
1.45525
1.41192
1.37064
1.33135
0.0900144
0.139714
0.177381
0.206093
0.230421
0.252429
0.27318
0.293303
0.313208
0.333188
0.353461
0.374202
0.395555
0.417641
0.440568
0.464428
0.489306
0.515281
0.542421
0.570793
0.600453
0.631452
0.663833
0.69763
0.732869
0.769566
0.80773
0.847359
0.888443
0.930964
0.974892
1.02019
1.06683
1.11475
1.16389
1.21421
1.26564
1.31811
1.37155
1.4259
1.48108
1.53702
1.59365
1.65089
1.70867
1.76693
1.82558
1.88456
1.9438
2.00323
2.06279
2.1224
2.18202
2.24157
2.301
2.36025
2.41927
2.478
2.53639
2.59441
2.65201
2.70911
2.76558
2.82139
2.87649
2.93084
2.98442
3.03718
3.0891
3.14014
3.19026
3.23945
3.28767
3.33489
3.38109
3.42624
3.47031
3.51329
3.55514
3.59585
3.63539
3.67374
3.71089
3.74682
3.7815
3.81492
3.84707
3.87794
3.9075
3.93574
3.96265
3.98822
4.01244
4.03529
4.05676
4.07685
4.09554
4.11281
4.12867
4.1431
4.1561
4.16765
4.17774
4.18637
4.19352
4.19919
4.20338
4.20606
4.20724
4.2069
4.20504
4.20164
4.19671
4.19024
4.18221
4.17263
4.16149
4.14877
4.13449
4.11864
4.10121
4.08221
4.06163
4.03949
4.01577
3.99049
3.96365
3.93527
3.90535
3.8739
3.84094
3.80649
3.77056
3.73317
3.69434
3.6541
3.61248
3.5695
3.52519
3.47958
3.43271
3.38461