/*--------------------------------*- C++ -*----------------------------------*\
| =========                 |                                                 |
| \\      /  F ield         | OpenFOAM: The Open Source CFD Toolbox           |
|  \\    /   O peration     | Version:  2412                                  |
|   \\  /    A nd           | Website:  www.openfoam.com                      |
|    \\/     M anipulation  |                                                 |
\*---------------------------------------------------------------------------*/
FoamFile
{
    version     2.0;
    format      ascii;
    arch        "LSB;label=32;scalar=64";
    class       volScalarField;
    location    "0.09";
    object      nut;
}
// * * * * * * * * * * * * * * * * * * * * * * * * * * * * * * * * * * * * * //

dimensions      [0 2 -1 0 0 0 0];

internalField   nonuniform List<scalar> 
12225
(
2.015e-05
2.24858e-05
2.47491e-05
2.63714e-05
2.75879e-05
2.85142e-05
2.92322e-05
2.97979e-05
3.02483e-05
3.06097e-05
3.09015e-05
3.11378e-05
3.13292e-05
3.14834e-05
3.16063e-05
3.17013e-05
3.17724e-05
3.18399e-05
0.000167792
0.000185428
0.000202597
0.000213786
0.000221145
0.000225984
0.000229001
0.00023072
0.000231514
0.000231643
0.000231291
0.000230594
0.000229649
0.00022853
0.000227294
0.00022597
0.000224711
0.00022409
0.000338328
0.000365994
0.000399361
0.000424406
0.000442779
0.000456138
0.000465648
0.000472248
0.000476656
0.000479408
0.000480904
0.000481446
0.000481263
0.000480528
0.000479376
0.00047791
0.000476328
0.00047556
0.000480631
0.00052177
0.000570121
0.00060839
0.000637802
0.000660209
0.000677098
0.00068969
0.000698951
0.000705623
0.000710277
0.000713356
0.000715202
0.000716082
0.000716206
0.000715744
0.000714943
0.000714543
0.00059357
0.000650967
0.000713489
0.000763784
0.000803283
0.000834122
0.000858087
0.000876628
0.000890893
0.000901781
0.000909994
0.000916083
0.000920483
0.000923538
0.000925523
0.000926668
0.000927241
0.000927776
0.000684417
0.000756656
0.00083195
0.000893053
0.000941625
0.000980102
0.00101056
0.00103465
0.00105369
0.0010687
0.00108047
0.00108966
0.00109677
0.0011022
0.00110629
0.00110931
0.00111154
0.00111337
0.000759756
0.000842839
0.000928291
0.000998647
0.00105522
0.00110054
0.00113687
0.00116606
0.00118953
0.00120842
0.00122362
0.00123583
0.00124562
0.00125347
0.00125973
0.00126472
0.00126871
0.001272
0.000823624
0.000913364
0.00100525
0.00108261
0.00114578
0.00119702
0.00123857
0.00127237
0.00129992
0.00132243
0.00134086
0.00135597
0.00136838
0.0013786
0.00138702
0.00139398
0.00139974
0.00140453
0.000877002
0.000970915
0.0010653
0.00114672
0.00121456
0.00127046
0.0013164
0.00135421
0.00138542
0.00141126
0.00143271
0.00145058
0.00146551
0.00147804
0.00148859
0.0014975
0.00150502
0.0015113
0.000918257
0.00101593
0.00110995
0.00119241
0.00126253
0.0013214
0.00137055
0.00141157
0.00144587
0.00147463
0.00149883
0.00151926
0.00153658
0.00155134
0.00156397
0.0015748
0.00158405
0.0015918
0.000944751
0.00104624
0.0011388
0.00122006
0.00129015
0.00135004
0.00140091
0.00144403
0.00148061
0.00151171
0.00153824
0.00156094
0.00158046
0.00159731
0.00161193
0.00162462
0.00163557
0.00164476
0.000953929
0.00105647
0.00114713
0.00122621
0.0012948
0.00135413
0.00140528
0.00144931
0.0014872
0.00151987
0.00154811
0.0015726
0.00159391
0.00161253
0.00162886
0.00164318
0.00165565
0.00166614
0.000951546
0.0010519
0.0011407
0.00121792
0.00128482
0.0013429
0.00139337
0.00143726
0.00147546
0.0015088
0.00153797
0.00156356
0.00158609
0.00160601
0.00162366
0.00163931
0.00165304
0.00166462
0.000937267
0.00102693
0.00110962
0.00118334
0.00124794
0.00130435
0.00135363
0.00139677
0.00143465
0.00146803
0.00149754
0.00152373
0.00154707
0.00156793
0.00158663
0.00160339
0.00161824
0.00163079
0.000914067
0.000982519
0.00105001
0.00111402
0.00117278
0.00122568
0.00127282
0.00131464
0.00135171
0.00138464
0.001414
0.00144027
0.00146389
0.00148521
0.0015045
0.00152196
0.00153759
0.00155084
0.000888183
0.000929368
0.000972532
0.00101673
0.00106057
0.00110291
0.00114293
0.00118013
0.00121431
0.00124547
0.00127378
0.0012995
0.00132287
0.00134415
0.00136356
0.00138127
0.00139726
0.00141095
0.000866166
0.000882905
0.00090146
0.00092183
0.000943717
0.000966727
0.000990432
0.00101438
0.00103815
0.00106138
0.0010838
0.00110522
0.00112553
0.00114464
0.00116255
0.00117927
0.00119473
0.0012085
0.000853647
0.000856464
0.000860484
0.000865725
0.000872138
0.000879658
0.000888217
0.000897723
0.000908064
0.000919111
0.000930723
0.000942761
0.000955087
0.000967578
0.000980113
0.000992573
0.00100484
0.00101668
0.000856837
0.000863039
0.000870432
0.000879022
0.000888697
0.000899303
0.000910671
0.000922617
0.000934946
0.000947473
0.00096003
0.000972479
0.000984707
0.00099663
0.00100819
0.00101934
0.00103003
0.00104003
0.000879013
0.00091009
0.000943001
0.000977094
0.00101137
0.00104492
0.00107706
0.0011073
0.00113534
0.00116109
0.00118456
0.00120587
0.00122516
0.00124262
0.00125841
0.0012727
0.00128561
0.00129721
0.000912426
0.00097863
0.00104329
0.00110415
0.00115969
0.00120944
0.00125357
0.0012925
0.00132675
0.00135688
0.00138342
0.00140683
0.00142752
0.00144585
0.0014621
0.00147655
0.0014894
0.00150095
0.000944651
0.00103937
0.00112414
0.00119816
0.00126209
0.00131726
0.00136491
0.00140609
0.0014417
0.00147254
0.00149928
0.0015225
0.00154271
0.00156032
0.0015757
0.00158913
0.00160089
0.00161124
0.000952969
0.00105495
0.00114494
0.00122286
0.00128968
0.0013468
0.00139547
0.00143684
0.001472
0.00150189
0.00152735
0.00154907
0.00156763
0.00158351
0.00159711
0.00160878
0.00161878
0.00162735
0.000919762
0.00101577
0.00110711
0.00118655
0.00125366
0.00130983
0.00135662
0.00139556
0.001428
0.00145508
0.00147772
0.00149669
0.00151259
0.00152595
0.00153716
0.00154657
0.00155445
0.00156098
0.00084792
0.000936212
0.00102591
0.00110193
0.0011644
0.00121544
0.00125709
0.00129112
0.00131899
0.00134186
0.00136065
0.00137609
0.00138878
0.0013992
0.00140773
0.00141469
0.00142033
0.00142481
0.000748241
0.000825344
0.000905837
0.000972006
0.00102523
0.00106796
0.00110226
0.00112982
0.00115199
0.00116982
0.00118415
0.00119563
0.00120479
0.00121207
0.00121779
0.00122223
0.00122561
0.00122807
0.000620838
0.000679397
0.000743804
0.000795903
0.000837072
0.000869523
0.000895047
0.000915073
0.00093074
0.000942941
0.000952378
0.000959602
0.000965049
0.000969066
0.000971929
0.000973858
0.000975029
0.000975556
0.000453206
0.00049108
0.000536514
0.000572228
0.00059936
0.000619977
0.00063556
0.00064722
0.00065584
0.0006621
0.00066652
0.000669501
0.000671356
0.000672326
0.000672603
0.000672337
0.000671647
0.000670629
0.00023657
0.000259231
0.000284033
0.000301437
0.000313163
0.000321244
0.000326756
0.000330375
0.000332603
0.000333805
0.000334244
0.000334114
0.000333559
0.00033269
0.00033159
0.000330323
0.000328939
0.000327501
2.7242e-05
3.0171e-05
3.32398e-05
3.54418e-05
3.70548e-05
3.82621e-05
3.91811e-05
3.98938e-05
4.04545e-05
4.09004e-05
4.12578e-05
4.15465e-05
4.1781e-05
4.19724e-05
4.21291e-05
4.22579e-05
4.23636e-05
4.24511e-05
6.51586e-06
1.80221e-05
2.03669e-05
2.19213e-05
2.29483e-05
2.36435e-05
2.43468e-05
2.50916e-05
2.58552e-05
2.66641e-05
2.75579e-05
2.86244e-05
3.00372e-05
3.1578e-05
3.31915e-05
3.48421e-05
3.65143e-05
3.81965e-05
3.98768e-05
4.15446e-05
4.3192e-05
4.48151e-05
4.64135e-05
4.79905e-05
4.95352e-05
5.10352e-05
5.24891e-05
5.38975e-05
5.52616e-05
5.6583e-05
5.78637e-05
5.9106e-05
6.03122e-05
6.14845e-05
6.26254e-05
6.37368e-05
6.4821e-05
6.58797e-05
6.69148e-05
6.79277e-05
6.89198e-05
6.98925e-05
7.08466e-05
7.17832e-05
7.2703e-05
7.36066e-05
7.44946e-05
7.53673e-05
7.62252e-05
7.70685e-05
7.78974e-05
7.87119e-05
7.95123e-05
8.02983e-05
8.10702e-05
8.18278e-05
8.2571e-05
8.32998e-05
8.4014e-05
8.47134e-05
8.53981e-05
8.60678e-05
8.67223e-05
8.73616e-05
8.79855e-05
8.85941e-05
8.91874e-05
8.97659e-05
9.03302e-05
9.08818e-05
9.14235e-05
9.19543e-05
9.24667e-05
9.29612e-05
9.34385e-05
9.38985e-05
9.43413e-05
9.47667e-05
9.51748e-05
9.55653e-05
9.59382e-05
9.62934e-05
9.66307e-05
9.695e-05
9.72513e-05
9.75345e-05
9.77996e-05
9.80465e-05
9.82751e-05
9.84855e-05
9.86776e-05
9.88515e-05
9.90071e-05
9.91444e-05
9.92635e-05
9.93645e-05
9.94473e-05
9.95121e-05
9.95589e-05
9.95878e-05
9.9599e-05
9.95924e-05
9.95684e-05
9.95269e-05
9.94682e-05
9.93925e-05
9.93e-05
9.91908e-05
9.90652e-05
9.89234e-05
9.87658e-05
9.85926e-05
9.84042e-05
9.82008e-05
9.79828e-05
9.77506e-05
9.75046e-05
9.72452e-05
9.69729e-05
9.66881e-05
9.63912e-05
9.60827e-05
9.57632e-05
9.54331e-05
9.5093e-05
9.47432e-05
9.43845e-05
9.40172e-05
9.36417e-05
9.32588e-05
9.28686e-05
9.24717e-05
9.20684e-05
9.16591e-05
9.1244e-05
9.08234e-05
9.03976e-05
8.99664e-05
8.95299e-05
8.90886e-05
8.86415e-05
8.81892e-05
8.77338e-05
8.72853e-05
8.69722e-05
8.68047e-05
8.66555e-05
8.65124e-05
8.63734e-05
8.62374e-05
8.61033e-05
8.59698e-05
8.58357e-05
8.56994e-05
8.55592e-05
8.54132e-05
8.52595e-05
8.50956e-05
8.49195e-05
8.47284e-05
8.45199e-05
8.42914e-05
8.404e-05
8.37632e-05
8.34583e-05
8.31226e-05
8.27536e-05
8.2349e-05
8.19065e-05
8.14237e-05
8.08984e-05
8.03282e-05
7.971e-05
7.90397e-05
7.83109e-05
7.75124e-05
7.66211e-05
7.55828e-05
7.42954e-05
7.27345e-05
9.50933e-06
4.20849e-05
8.1222e-05
0.000112036
0.000133813
0.000148947
0.000157209
0.000161435
0.000164531
0.00016791
0.000171913
0.000176341
0.000180909
0.000185645
0.000190667
0.000196132
0.000202187
0.000208936
0.000216427
0.000224657
0.000233583
0.000243136
0.000253236
0.000263797
0.000274746
0.000286006
0.000297496
0.00030914
0.000320869
0.000332622
0.000344348
0.000356007
0.00036757
0.000379013
0.000390325
0.000401499
0.000412533
0.000423429
0.000434195
0.000444837
0.000455365
0.000465787
0.000476113
0.000486352
0.000496512
0.0005066
0.000516623
0.000526586
0.000536493
0.000546347
0.000556151
0.000565905
0.00057561
0.000585267
0.000594872
0.000604426
0.000613926
0.000623369
0.000632752
0.000642071
0.000651324
0.000660505
0.00066961
0.000678633
0.000687566
0.0006964
0.00070512
0.000713705
0.000722124
0.000730335
0.000738187
0.000745544
0.000752719
0.000759766
0.000766691
0.000773494
0.000780173
0.000786725
0.000793146
0.000799433
0.000805584
0.000811595
0.000817462
0.000823184
0.000828756
0.000834177
0.000839443
0.000844552
0.000849501
0.000854288
0.000858911
0.000863367
0.000867654
0.00087177
0.000875713
0.000879482
0.000883075
0.00088649
0.000889725
0.00089278
0.000895652
0.000898342
0.000900848
0.000903169
0.000905304
0.000907254
0.000909018
0.000910596
0.000911989
0.000913196
0.00091422
0.000915061
0.00091572
0.0009162
0.000916503
0.000916632
0.00091659
0.00091638
0.000916006
0.000915473
0.000914786
0.000913951
0.000912972
0.000911858
0.000910613
0.000909246
0.000907765
0.000906177
0.000904491
0.000902715
0.000900858
0.000898929
0.000896937
0.000894892
0.000892802
0.000890672
0.000888517
0.000886339
0.000884141
0.000881937
0.000879717
0.00087745
0.000875043
0.000872138
0.000867613
0.000861947
0.000855879
0.000849596
0.000843141
0.000836524
0.000829736
0.000822766
0.000815598
0.000808213
0.000800589
0.000792704
0.000784531
0.000776047
0.000767223
0.000758032
0.000748447
0.000738443
0.000727993
0.000717074
0.000705666
0.000693752
0.000681319
0.000668359
0.000654869
0.000640849
0.000626306
0.000611248
0.000595684
0.000579619
0.000563043
0.000545924
0.000528134
0.000509413
0.000483834
0.000447546
1.15395e-05
6.74022e-05
0.000134329
0.000185364
0.000221061
0.000243905
0.000258064
0.000267182
0.00027416
0.000280885
0.000288317
0.000296786
0.000306356
0.000317069
0.000329008
0.000342285
0.000357005
0.000373227
0.000390947
0.000410095
0.000430549
0.000452147
0.000474707
0.000498042
0.000521969
0.000546313
0.000570914
0.000595632
0.000620347
0.000644965
0.000669411
0.000693632
0.000717592
0.000741271
0.000764659
0.000787758
0.000810576
0.000833125
0.000855423
0.000877485
0.000899332
0.00092098
0.000942447
0.000963747
0.000984896
0.0010059
0.00102678
0.00104753
0.00106817
0.00108869
0.0011091
0.0011294
0.00114959
0.00116966
0.00118961
0.00120944
0.00122913
0.00124868
0.00126808
0.00128733
0.00130641
0.0013253
0.001344
0.00136249
0.00138076
0.00139877
0.0014165
0.00143393
0.00145101
0.00146772
0.00148383
0.0014995
0.00151486
0.00152994
0.00154475
0.0015593
0.00157358
0.00158758
0.00160129
0.00161471
0.00162784
0.00164066
0.00165317
0.00166536
0.00167723
0.00168876
0.00169996
0.00171082
0.00172133
0.00173149
0.00174129
0.00175073
0.0017598
0.0017685
0.00177682
0.00178476
0.00179231
0.00179948
0.00180626
0.00181264
0.00181862
0.0018242
0.00182938
0.00183415
0.00183852
0.00184247
0.00184602
0.00184916
0.00185188
0.0018542
0.0018561
0.0018576
0.00185869
0.00185939
0.00185968
0.00185958
0.00185909
0.00185821
0.00185697
0.00185535
0.00185338
0.00185106
0.00184841
0.00184543
0.00184213
0.00183854
0.00183467
0.00183052
0.00182613
0.00182149
0.00181664
0.00181158
0.00180634
0.00180093
0.00179536
0.00178965
0.00178383
0.00177789
0.00177184
0.0017657
0.00175945
0.001753
0.00174619
0.0017386
0.00172947
0.0017191
0.00170804
0.00169655
0.00168472
0.00167259
0.00166014
0.00164736
0.00163423
0.00162069
0.00160672
0.00159227
0.00157728
0.00156171
0.00154549
0.00152858
0.00151091
0.00149242
0.00147307
0.00145279
0.00143154
0.00140928
0.00138598
0.00136161
0.00133615
0.0013096
0.00128196
0.00125324
0.00122344
0.00119257
0.00116059
0.00112744
0.00109287
0.00105633
0.00101405
0.000954173
1.31068e-05
9.28555e-05
0.000179119
0.000243727
0.000288564
0.000318979
0.000339647
0.000354488
0.000366585
0.000378111
0.000390398
0.000404151
0.000419699
0.000437196
0.000456727
0.000478337
0.00050203
0.000527751
0.000555383
0.000584751
0.000615639
0.000647803
0.000680992
0.000714961
0.00074948
0.000784344
0.000819374
0.000854419
0.000889358
0.000924098
0.000958568
0.000992721
0.00102653
0.00105997
0.00109305
0.00112578
0.00115815
0.0011902
0.00122193
0.00125338
0.00128455
0.00131547
0.00134616
0.00137663
0.0014069
0.00143698
0.00146687
0.00149659
0.00152614
0.00155552
0.00158473
0.00161377
0.00164264
0.00167132
0.00169981
0.00172811
0.0017562
0.00178406
0.00181169
0.00183908
0.0018662
0.00189303
0.00191957
0.00194579
0.00197167
0.00199718
0.00202229
0.00204699
0.00207125
0.002095
0.00211816
0.00214083
0.0021631
0.00218497
0.00220646
0.00222756
0.00224827
0.00226859
0.0022885
0.00230799
0.00232705
0.00234568
0.00236387
0.0023816
0.00239887
0.00241567
0.00243199
0.00244782
0.00246315
0.00247799
0.00249231
0.00250611
0.00251939
0.00253213
0.00254434
0.002556
0.00256711
0.00257767
0.00258766
0.00259708
0.00260593
0.00261421
0.0026219
0.002629
0.00263551
0.00264143
0.00264675
0.00265148
0.00265561
0.00265913
0.00266205
0.00266438
0.0026661
0.00266723
0.00266777
0.00266772
0.00266709
0.00266588
0.0026641
0.00266177
0.00265889
0.00265547
0.00265154
0.00264709
0.00264215
0.00263674
0.00263087
0.00262456
0.00261784
0.00261071
0.00260321
0.00259536
0.00258716
0.00257866
0.00256987
0.0025608
0.00255149
0.00254194
0.00253216
0.00252214
0.00251185
0.00250121
0.00249006
0.00247809
0.00246489
0.00245059
0.00243549
0.00241981
0.00240364
0.00238703
0.00236996
0.00235243
0.0023344
0.00231582
0.00229664
0.0022768
0.00225624
0.00223488
0.00221265
0.00218947
0.00216528
0.00213998
0.00211351
0.0020858
0.00205677
0.00202639
0.00199459
0.00196134
0.00192663
0.00189044
0.00185278
0.00181366
0.00177309
0.00173108
0.00168763
0.00164267
0.001596
0.00154709
0.00149354
0.00142755
1.42445e-05
0.000112391
0.000214842
0.000291228
0.000345765
0.000384335
0.000412063
0.000433171
0.000450971
0.000467886
0.000485529
0.000504873
0.000526441
0.000550477
0.000577063
0.000606176
0.000637717
0.000671523
0.000707382
0.000745042
0.000784226
0.000824654
0.000866049
0.000908156
0.000950742
0.000993603
0.00103657
0.00107949
0.00112226
0.0011648
0.00120703
0.00124891
0.00129042
0.00133154
0.00137227
0.00141261
0.00145258
0.00149218
0.00153144
0.00157038
0.001609
0.00164733
0.00168539
0.00172319
0.00176074
0.00179805
0.00183513
0.00187198
0.0019086
0.00194501
0.00198118
0.00201713
0.00205284
0.0020883
0.00212351
0.00215846
0.00219312
0.0022275
0.00226156
0.0022953
0.0023287
0.00236173
0.00239439
0.00242664
0.00245847
0.00248985
0.00252077
0.00255121
0.00258115
0.00261046
0.0026392
0.00266742
0.00269515
0.00272242
0.00274922
0.00277555
0.0028014
0.00282678
0.00285166
0.00287603
0.00289989
0.00292323
0.00294603
0.00296828
0.00298997
0.00301109
0.00303163
0.00305159
0.00307095
0.0030897
0.00310783
0.00312533
0.0031422
0.00315842
0.00317399
0.0031889
0.00320314
0.00321669
0.00322957
0.00324175
0.00325322
0.003264
0.00327405
0.00328339
0.00329199
0.00329987
0.003307
0.0033134
0.00331905
0.00332395
0.0033281
0.00333149
0.00333413
0.00333602
0.00333716
0.00333755
0.0033372
0.00333611
0.00333428
0.00333174
0.00332848
0.00332451
0.00331986
0.00331453
0.00330855
0.00330192
0.00329467
0.00328681
0.00327837
0.00326937
0.00325983
0.00324978
0.00323923
0.00322822
0.00321677
0.0032049
0.00319262
0.00317996
0.00316691
0.00315346
0.00313959
0.00312523
0.00311025
0.00309445
0.00307762
0.00305979
0.00304112
0.00302175
0.00300176
0.00298119
0.00296004
0.00293829
0.00291589
0.00289281
0.00286899
0.00284436
0.00281885
0.00279238
0.00276487
0.00273623
0.00270639
0.00267525
0.00264273
0.00260876
0.00257326
0.00253617
0.00249744
0.00245704
0.00241495
0.00237116
0.00232569
0.00227856
0.0022298
0.00217946
0.00212755
0.00207407
0.00201891
0.00196172
0.00190115
0.0018341
1.50691e-05
0.000126809
0.000242183
0.00032991
0.000394251
0.00044139
0.00047671
0.000504622
0.000528614
0.000551296
0.000574494
0.000599376
0.000626613
0.000656526
0.000689204
0.000724586
0.000762511
0.000802754
0.000845047
0.000889102
0.000934621
0.000981316
0.00102891
0.00107716
0.00112584
0.00117477
0.00122377
0.00127272
0.00132151
0.00137006
0.00141831
0.00146621
0.00151373
0.00156087
0.0016076
0.00165394
0.00169989
0.00174545
0.00179065
0.00183549
0.00187999
0.00192417
0.00196803
0.00201158
0.00205485
0.00209783
0.00214052
0.00218295
0.00222509
0.00226696
0.00230855
0.00234986
0.00239087
0.00243158
0.00247197
0.00251205
0.00255178
0.00259116
0.00263018
0.0026688
0.00270703
0.00274483
0.00278219
0.0028191
0.00285552
0.00289145
0.00292686
0.00296174
0.00299608
0.00302976
0.00306285
0.00309539
0.00312739
0.00315888
0.00318986
0.00322031
0.00325023
0.00327962
0.00330846
0.00333674
0.00336445
0.00339157
0.0034181
0.00344403
0.00346933
0.00349401
0.00351804
0.00354142
0.00356414
0.00358618
0.00360753
0.00362819
0.00364814
0.00366737
0.00368586
0.00370362
0.00372063
0.00373687
0.00375235
0.00376704
0.00378095
0.00379406
0.00380635
0.00381783
0.00382848
0.0038383
0.00384728
0.00385541
0.00386268
0.00386909
0.00387463
0.0038793
0.00388309
0.00388601
0.00388805
0.00388921
0.00388949
0.00388889
0.00388742
0.00388509
0.0038819
0.00387786
0.00387298
0.00386727
0.00386075
0.00385343
0.00384533
0.00383647
0.00382686
0.00381653
0.00380551
0.00379381
0.00378146
0.00376848
0.0037549
0.00374074
0.003726
0.00371071
0.00369487
0.00367848
0.00366151
0.00364391
0.00362559
0.00360643
0.00358631
0.00356524
0.00354328
0.00352053
0.00349704
0.00347283
0.00344791
0.00342225
0.00339582
0.00336858
0.00334047
0.00331142
0.00328137
0.00325023
0.00321793
0.00318437
0.00314947
0.00311315
0.00307533
0.00303592
0.00299486
0.00295209
0.00290757
0.00286126
0.00281317
0.00276328
0.00271163
0.00265827
0.00260326
0.00254665
0.00248854
0.00242896
0.00236793
0.00230529
0.00224037
0.0021724
1.61056e-05
0.000133939
0.000260904
0.000359746
0.00043397
0.000489932
0.000533193
0.000568286
0.000598799
0.000627463
0.00065624
0.000686441
0.000718854
0.000753877
0.000791634
0.00083207
0.000875011
0.000920214
0.000967399
0.00101627
0.00106654
0.00111791
0.00117014
0.00122299
0.00127625
0.00132974
0.00138331
0.00143684
0.00149022
0.00154338
0.00159625
0.00164878
0.00170095
0.00175274
0.00180413
0.00185512
0.00190571
0.0019559
0.0020057
0.00205512
0.00210417
0.00215287
0.00220121
0.00224922
0.00229689
0.00234423
0.00239125
0.00243795
0.00248433
0.00253039
0.00257611
0.00262151
0.00266657
0.00271128
0.00275563
0.00279961
0.00284321
0.0028864
0.00292919
0.00297154
0.00301345
0.0030549
0.00309587
0.00313634
0.0031763
0.00321573
0.00325461
0.00329293
0.00333065
0.00336773
0.00340421
0.00344012
0.00347548
0.0035103
0.00354457
0.00357829
0.00361146
0.00364406
0.00367609
0.00370753
0.00373837
0.00376859
0.00379819
0.00382715
0.00385545
0.0038831
0.00391006
0.00393634
0.00396191
0.00398677
0.0040109
0.00403429
0.00405692
0.0040788
0.00409989
0.00412019
0.0041397
0.00415838
0.00417625
0.00419327
0.00420944
0.00422476
0.0042392
0.00425275
0.00426541
0.00427716
0.00428799
0.00429789
0.00430685
0.00431487
0.00432193
0.00432802
0.00433314
0.00433729
0.00434045
0.00434263
0.00434381
0.004344
0.00434321
0.00434142
0.00433865
0.00433489
0.00433017
0.00432447
0.00431782
0.00431023
0.0043017
0.00429227
0.00428194
0.00427073
0.00425867
0.00424577
0.00423206
0.00421755
0.00420227
0.00418624
0.00416947
0.00415198
0.00413377
0.00411485
0.00409519
0.00407476
0.0040535
0.00403134
0.00400822
0.00398413
0.00395909
0.00393316
0.00390637
0.00387874
0.00385026
0.00382092
0.00379069
0.00375953
0.00372738
0.00369419
0.00365988
0.0036244
0.00358765
0.00354956
0.00351005
0.00346905
0.00342647
0.00338225
0.00333633
0.00328865
0.00323919
0.00318793
0.00313487
0.00308003
0.00302346
0.00296523
0.00290542
0.00284414
0.00278151
0.00271765
0.00265265
0.00258652
0.00251899
0.00245016
1.69383e-05
0.0001372
0.000273
0.000381682
0.000465258
0.000529875
0.000581094
0.000623465
0.000660598
0.000695267
0.000729509
0.000764727
0.000801803
0.000841217
0.000883155
0.000927602
0.000974411
0.00102336
0.00107419
0.00112661
0.00118036
0.00123516
0.00129078
0.001347
0.00140362
0.00146047
0.00151742
0.00157434
0.00163114
0.00168773
0.00174405
0.00180006
0.00185572
0.001911
0.00196589
0.00202037
0.00207445
0.00212812
0.00218139
0.00223425
0.00228673
0.00233882
0.00239053
0.00244187
0.00249285
0.00254347
0.00259372
0.00264363
0.00269318
0.00274237
0.0027912
0.00283966
0.00288776
0.00293547
0.00298279
0.00302971
0.00307622
0.0031223
0.00316794
0.00321312
0.00325783
0.00330206
0.00334578
0.00338899
0.00343167
0.0034738
0.00351537
0.00355637
0.00359672
0.00363645
0.0036756
0.00371419
0.00375222
0.0037897
0.00382664
0.00386301
0.00389882
0.00393406
0.00396871
0.00400277
0.00403621
0.00406903
0.00410121
0.00413274
0.0041636
0.00419378
0.00422327
0.00425206
0.00428012
0.00430745
0.00433403
0.00435984
0.00438489
0.00440914
0.00443258
0.00445521
0.004477
0.00449795
0.00451803
0.00453724
0.00455557
0.00457299
0.0045895
0.00460507
0.00461969
0.00463335
0.00464605
0.00465775
0.00466846
0.00467815
0.00468682
0.00469444
0.00470102
0.00470654
0.00471099
0.00471437
0.00471666
0.00471785
0.00471796
0.00471697
0.00471488
0.00471169
0.0047074
0.00470202
0.00469555
0.00468801
0.0046794
0.00466973
0.00465902
0.00464728
0.00463452
0.00462078
0.00460605
0.00459037
0.00457375
0.0045562
0.00453775
0.0045184
0.00449817
0.00447705
0.00445503
0.0044321
0.00440822
0.00438336
0.00435746
0.00433053
0.00430257
0.00427362
0.00424369
0.00421278
0.00418091
0.00414806
0.00411419
0.00407928
0.00404329
0.00400615
0.00396782
0.00392823
0.00388731
0.003845
0.00380122
0.00375591
0.00370901
0.00366046
0.00361021
0.00355823
0.0035045
0.00344903
0.00339182
0.00333292
0.0032724
0.00321035
0.00314689
0.00308216
0.00301632
0.00294954
0.00288199
0.00281377
0.00274484
0.00267558
1.75635e-05
0.000137896
0.000279851
0.00039672
0.000488708
0.000561448
0.000620322
0.000669787
0.000713397
0.000753909
0.000793379
0.000833261
0.000874513
0.000917692
0.00096306
0.00101067
0.00106042
0.00111214
0.0011656
0.00122056
0.00127676
0.00133396
0.00139195
0.00145051
0.00150948
0.00156868
0.00162799
0.00168728
0.00174648
0.00180548
0.00186424
0.00192269
0.00198081
0.00203856
0.00209593
0.00215289
0.00220944
0.00226558
0.0023213
0.00237662
0.00243153
0.00248604
0.00254015
0.00259388
0.00264722
0.00270018
0.00275276
0.00280498
0.00285681
0.00290828
0.00295936
0.00301007
0.00306039
0.00311031
0.00315983
0.00320894
0.00325761
0.00330586
0.00335365
0.00340097
0.00344782
0.00349417
0.00354001
0.00358533
0.00363012
0.00367435
0.00371802
0.00376111
0.00380357
0.00384544
0.00388675
0.00392751
0.00396773
0.00400742
0.00404656
0.00408515
0.00412318
0.00416065
0.00419753
0.00423383
0.00426951
0.00430457
0.00433899
0.00437276
0.00440587
0.00443829
0.00447002
0.00450103
0.00453133
0.00456088
0.00458967
0.0046177
0.00464494
0.00467138
0.004697
0.00472178
0.00474572
0.00476878
0.00479097
0.00481227
0.00483265
0.00485211
0.00487062
0.00488816
0.00490472
0.00492029
0.00493484
0.00494836
0.00496084
0.00497226
0.00498259
0.00499182
0.00499994
0.00500694
0.00501281
0.00501752
0.00502107
0.00502343
0.00502461
0.00502459
0.00502338
0.00502096
0.00501734
0.00501251
0.00500647
0.00499923
0.00499078
0.00498115
0.00497032
0.00495833
0.00494516
0.00493085
0.0049154
0.00489882
0.00488114
0.00486237
0.00484251
0.00482159
0.0047996
0.00477657
0.00475247
0.00472731
0.00470107
0.00467371
0.00464523
0.00461562
0.00458488
0.00455303
0.00452007
0.00448603
0.00445089
0.00441465
0.00437728
0.00433877
0.00429908
0.00425816
0.00421598
0.00417247
0.0041276
0.0040813
0.00403353
0.00398422
0.00393333
0.00388083
0.00382669
0.00377088
0.00371342
0.00365431
0.0035936
0.00353135
0.00346766
0.00340264
0.00333643
0.00326921
0.00320117
0.00313253
0.00306349
0.00299424
0.00292481
0.00285565
1.80124e-05
0.000136711
0.000282449
0.000405778
0.000505026
0.000585109
0.000651085
0.000707226
0.000756969
0.000803004
0.000847363
0.000891523
0.00093649
0.000982891
0.00103107
0.00108114
0.00113308
0.00118678
0.00124205
0.00129869
0.00135648
0.0014152
0.00147467
0.00153469
0.00159509
0.00165573
0.00171648
0.00177723
0.00183788
0.00189836
0.00195861
0.00201857
0.0020782
0.00213748
0.00219637
0.00225487
0.00231297
0.00237066
0.00242794
0.00248481
0.00254127
0.00259733
0.002653
0.00270828
0.00276318
0.0028177
0.00287184
0.00292562
0.00297902
0.00303206
0.00308472
0.00313701
0.00318891
0.00324043
0.00329155
0.00334226
0.00339256
0.00344242
0.00349184
0.0035408
0.00358929
0.00363729
0.00368479
0.00373178
0.00377824
0.00382415
0.00386951
0.00391429
0.00395848
0.00400214
0.00404526
0.00408787
0.00412995
0.00417152
0.00421257
0.00425309
0.00429306
0.00433249
0.00437134
0.00440962
0.00444729
0.00448436
0.00452079
0.00455659
0.00459172
0.00462618
0.00465995
0.00469301
0.00472535
0.00475695
0.0047878
0.00481788
0.00484718
0.00487566
0.00490333
0.00493015
0.00495611
0.0049812
0.0050054
0.0050287
0.00505107
0.00507251
0.00509297
0.00511245
0.00513092
0.00514836
0.00516477
0.00518011
0.00519439
0.00520756
0.0052196
0.00523049
0.00524022
0.00524877
0.00525612
0.00526226
0.00526716
0.00527081
0.0052732
0.00527431
0.00527414
0.00527266
0.00526988
0.00526578
0.00526036
0.00525361
0.00524554
0.00523615
0.00522543
0.0052134
0.00520005
0.0051854
0.00516945
0.00515222
0.00513371
0.00511394
0.00509292
0.00507065
0.00504716
0.00502244
0.00499649
0.00496932
0.00494091
0.00491126
0.00488037
0.00484821
0.00481481
0.00478018
0.00474432
0.00470723
0.00466894
0.00462942
0.00458867
0.00454667
0.00450341
0.00445885
0.00441296
0.00436571
0.00431706
0.00426697
0.00421542
0.00416236
0.00410777
0.00405163
0.00399394
0.00393469
0.00387392
0.00381166
0.00374797
0.00368296
0.00361671
0.00354939
0.00348117
0.00341223
0.0033428
0.00327313
0.00320345
0.00313396
0.00306475
0.0029962
1.83113e-05
0.00013414
0.000281606
0.000409699
0.000514951
0.00060144
0.000673791
0.00073602
0.0007914
0.000842513
0.000891342
0.000939354
0.000987584
0.00103672
0.00108716
0.0011391
0.0011926
0.00124758
0.00130394
0.00136152
0.00142012
0.00147957
0.0015397
0.00160033
0.00166132
0.00172252
0.00178383
0.00184513
0.00190635
0.00196739
0.00202822
0.00208877
0.002149
0.0022089
0.00226843
0.00232759
0.00238636
0.00244475
0.00250274
0.00256035
0.00261758
0.00267443
0.00273091
0.00278704
0.0028428
0.00289822
0.0029533
0.00300803
0.00306242
0.00311648
0.00317019
0.00322356
0.00327657
0.00332923
0.00338152
0.00343342
0.00348494
0.00353605
0.00358674
0.00363699
0.00368679
0.00373613
0.00378498
0.00383333
0.00388116
0.00392848
0.00397525
0.00402148
0.00406719
0.00411241
0.00415713
0.00420138
0.00424514
0.00428841
0.00433118
0.00437344
0.00441519
0.0044564
0.00449706
0.00453716
0.00457668
0.0046156
0.0046539
0.00469157
0.00472859
0.00476494
0.00480062
0.00483559
0.00486986
0.00490339
0.00493618
0.0049682
0.00499945
0.00502988
0.00505949
0.00508826
0.00511617
0.00514321
0.00516935
0.00519458
0.00521888
0.00524224
0.00526463
0.005286
0.00530635
0.00532565
0.0053439
0.00536106
0.00537712
0.00539204
0.00540581
0.00541839
0.00542977
0.00543993
0.00544884
0.00545648
0.00546283
0.00546787
0.00547157
0.00547392
0.0054749
0.0054745
0.00547269
0.00546947
0.00546482
0.00545874
0.00545121
0.00544223
0.0054318
0.00541991
0.00540657
0.00539177
0.00537552
0.00535783
0.0053387
0.00531813
0.00529615
0.00527275
0.00524794
0.00522174
0.00519414
0.00516515
0.00513477
0.00510299
0.00506982
0.00503527
0.00499933
0.00496203
0.00492336
0.00488335
0.004842
0.00479931
0.00475528
0.00470992
0.0046632
0.00461511
0.00456565
0.00451479
0.00446252
0.00440882
0.00435367
0.00429707
0.00423901
0.0041795
0.00411855
0.00405619
0.00399246
0.00392745
0.00386123
0.00379391
0.00372565
0.00365659
0.00358695
0.00351693
0.00344677
0.00337675
0.00330709
0.00323802
0.00316962
0.00310217
1.84801e-05
0.00013057
0.000278008
0.000409246
0.000519202
0.000611063
0.000688947
0.000756558
0.000816963
0.000872613
0.000925413
0.0009768
0.00102782
0.00107919
0.00113138
0.00118464
0.00123909
0.00129473
0.00135149
0.00140927
0.00146793
0.00152731
0.00158727
0.00164766
0.00170836
0.00176924
0.0018302
0.00189114
0.00195199
0.00201268
0.00207316
0.00213338
0.00219332
0.00225295
0.00231226
0.00237123
0.00242986
0.00248816
0.00254611
0.00260374
0.00266104
0.00271803
0.00277471
0.00283109
0.00288717
0.00294297
0.00299849
0.00305373
0.00310869
0.00316337
0.00321777
0.00327188
0.00332569
0.0033792
0.00343238
0.00348523
0.00353773
0.00358986
0.00364161
0.00369295
0.00374388
0.00379436
0.00384438
0.00389393
0.00394298
0.00399152
0.00403957
0.00408715
0.00413428
0.00418096
0.00422719
0.00427298
0.00431831
0.00436319
0.00440759
0.00445151
0.00449493
0.00453784
0.00458022