/*--------------------------------*- C++ -*----------------------------------*\
| =========                 |                                                 |
| \\      /  F ield         | OpenFOAM: The Open Source CFD Toolbox           |
|  \\    /   O peration     | Version:  2412                                  |
|   \\  /    A nd           | Website:  www.openfoam.com                      |
|    \\/     M anipulation  |                                                 |
\*---------------------------------------------------------------------------*/
FoamFile
{
    version     2.0;
    format      ascii;
    arch        "LSB;label=32;scalar=64";
    class       volScalarField;
    location    "0.09";
    object      p;
}
// * * * * * * * * * * * * * * * * * * * * * * * * * * * * * * * * * * * * * //

dimensions      [0 2 -2 0 0 0 0];

internalField   nonuniform List<scalar> 
12225
(
-10.3594
-9.76709
-9.10438
-8.54795
-8.03889
-7.58245
-7.18389
-6.83288
-6.52052
-6.24123
-5.99011
-5.76267
-5.55508
-5.36403
-5.18653
-5.01926
-4.86048
-4.69738
-10.7932
-9.82527
-9.13919
-8.58892
-8.07919
-7.6227
-7.2235
-6.87108
-6.55709
-6.27611
-6.02326
-5.79409
-5.5848
-5.39207
-5.21289
-5.04405
-4.883
-4.72654
-10.9737
-9.85954
-9.18094
-8.63979
-8.12959
-7.67396
-7.27491
-6.92143
-6.6059
-6.32313
-6.06833
-5.83715
-5.62583
-5.43109
-5.24996
-5.07935
-4.91646
-4.75581
-10.9975
-9.87526
-9.20562
-8.67374
-8.16624
-7.71348
-7.31629
-6.96337
-6.64767
-6.3643
-6.10858
-5.87628
-5.66376
-5.46784
-5.28558
-5.11427
-4.95054
-4.79305
-10.9274
-9.86997
-9.2059
-8.68453
-8.18406
-7.73622
-7.34258
-6.99187
-6.67747
-6.39478
-6.1393
-5.90696
-5.69427
-5.49818
-5.31591
-5.14519
-4.98252
-4.83237
-10.7856
-9.83683
-9.18242
-8.67366
-8.18483
-7.74419
-7.35571
-7.00869
-6.69686
-6.41594
-6.16168
-5.93022
-5.71824
-5.52289
-5.34161
-5.17261
-5.01255
-4.87065
-10.583
-9.7704
-9.13617
-8.64198
-8.16925
-7.73859
-7.357
-7.01519
-6.70717
-6.42906
-6.17695
-5.94722
-5.73677
-5.543
-5.36361
-5.19727
-5.04089
-4.90718
-10.33
-9.66807
-9.06799
-8.59003
-8.13723
-7.71979
-7.34706
-7.01202
-6.70913
-6.43492
-6.1859
-5.95876
-5.75067
-5.55929
-5.38262
-5.21973
-5.06777
-4.94195
-10.0376
-9.52954
-8.97902
-8.51946
-8.08931
-7.6884
-7.32662
-6.99994
-6.70354
-6.43435
-6.18938
-5.9657
-5.76079
-5.5726
-5.3994
-5.24061
-5.09357
-4.97521
-9.71684
-9.3568
-8.87061
-8.43314
-8.02717
-7.64571
-7.29702
-6.98018
-6.69154
-6.42847
-6.1885
-5.96913
-5.76818
-5.58391
-5.41487
-5.26069
-5.11886
-5.00737
-9.37995
-9.15463
-8.7444
-8.33459
-7.95376
-7.59398
-7.26035
-6.95463
-6.67483
-6.41886
-6.18474
-5.97044
-5.77416
-5.59445
-5.43008
-5.2809
-5.14431
-5.03926
-9.06797
-8.94886
-8.61468
-8.23642
-7.87954
-7.5411
-7.22293
-6.92843
-6.65748
-6.40871
-6.18058
-5.9715
-5.78
-5.60489
-5.44515
-5.30076
-5.16878
-5.06954
-8.77298
-8.73449
-8.47614
-8.13421
-7.80153
-7.48509
-7.18367
-6.90119
-6.63958
-6.39846
-6.17675
-5.97325
-5.78685
-5.61661
-5.46167
-5.32204
-5.19511
-5.0994
-8.46592
-8.49008
-8.31056
-8.01472
-7.71079
-7.41989
-7.1392
-6.87176
-6.62151
-6.38961
-6.17563
-5.97883
-5.79847
-5.6339
-5.48445
-5.35013
-5.22869
-5.1357
-8.16885
-8.23586
-8.12801
-7.88403
-7.61255
-7.34924
-7.09251
-6.84343
-6.607
-6.38614
-6.18138
-5.99247
-5.81906
-5.66083
-5.51733
-5.38861
-5.27258
-5.18192
-7.91049
-8.00383
-7.95363
-7.7607
-7.52255
-7.28562
-7.05265
-6.82311
-6.60183
-6.39316
-6.19873
-6.01872
-5.8531
-5.70178
-5.56449
-5.44136
-5.33046
-5.24152
-7.72295
-7.83104
-7.82233
-7.6735
-7.46675
-7.2532
-7.04076
-6.82863
-6.62101
-6.42315
-6.23771
-6.06544
-5.9065
-5.761
-5.62872
-5.5097
-5.40234
-5.31264
-7.64649
-7.75881
-7.77133
-7.6497
-7.46473
-7.26783
-7.07002
-6.8708
-6.67374
-6.48428
-6.3057
-6.13906
-5.98455
-5.84221
-5.71195
-5.59357
-5.48605
-5.39071
-7.74599
-7.85302
-7.85937
-7.73273
-7.54453
-7.34582
-7.14721
-6.94801
-6.75162
-6.56327
-6.38599
-6.2206
-6.06709
-5.92528
-5.79483
-5.67506
-5.5657
-5.46361
-8.02237
-8.11679
-8.08338
-7.91183
-7.69028
-7.46759
-7.24924
-7.03393
-6.82564
-6.6289
-6.44559
-6.27575
-6.11892
-5.97454
-5.84191
-5.71993
-5.60835
-5.50153
-8.41585
-8.47397
-8.37159
-8.13718
-7.87287
-7.61793
-7.37184
-7.13409
-6.90906
-6.69984
-6.5069
-6.32953
-6.16686
-6.01798
-5.88188
-5.75735
-5.64396
-5.53574
-8.9163
-8.89604
-8.68783
-8.37807
-8.06604
-7.77207
-7.49241
-7.22895
-6.98516
-6.76181
-6.55791
-6.37208
-6.20293
-6.04908
-5.90919
-5.78182
-5.66622
-5.55666
-9.48036
-9.32478
-8.98089
-8.59803
-8.24142
-7.90792
-7.59594
-7.30934
-7.0488
-6.81259
-6.59865
-6.40505
-6.22989
-6.07135
-5.92776
-5.79755
-5.67966
-5.569
-10.0448
-9.69881
-9.21572
-8.77793
-8.38401
-8.0145
-7.67508
-7.36943
-7.09466
-6.84728
-6.62467
-6.42438
-6.24401
-6.08137
-5.93455
-5.80179
-5.68184
-5.57026
-10.5488
-9.98034
-9.38469
-8.91289
-8.48631
-8.08584
-7.72503
-7.40457
-7.11846
-6.8623
-6.63301
-6.42762
-6.2433
-6.07759
-5.92836
-5.79372
-5.67225
-5.56018
-10.9503
-10.1579
-9.49144
-8.99932
-8.5442
-8.12029
-7.74458
-7.41353
-7.11926
-6.85695
-6.62309
-6.41427
-6.22736
-6.05967
-5.90894
-5.77315
-5.65079
-5.53867
-11.2217
-10.2414
-9.54168
-9.03499
-8.55863
-8.11984
-7.73462
-7.39661
-7.09717
-6.83115
-6.59466
-6.38398
-6.19577
-6.0272
-5.87588
-5.73974
-5.61718
-5.50557
-11.3289
-10.2568
-9.54233
-9.01926
-8.53088
-8.08454
-7.69373
-7.35192
-7.05014
-6.78276
-6.54558
-6.3347
-6.14663
-5.97841
-5.82759
-5.69204
-5.57008
-5.45966
-11.1962
-10.227
-9.50731
-8.96163
-8.46833
-8.01967
-7.62651
-7.28385
-6.98241
-6.71593
-6.47998
-6.27054
-6.08401
-5.91737
-5.7681
-5.63406
-5.51349
-5.40465
-10.6651
-10.1348
-9.46473
-8.90472
-8.40967
-7.96076
-7.56715
-7.22512
-6.92502
-6.66009
-6.42576
-6.21797
-6.03306
-5.86799
-5.72021
-5.58757
-5.46822
-5.36036
-4.80625
-4.80549
-4.80699
-4.81033
-4.81432
-4.81809
-4.82143
-4.82448
-4.8275
-4.83074
-4.83448
-4.83899
-4.84452
-4.85129
-4.85951
-4.8694
-4.8812
-4.89515
-4.91143
-4.93017
-4.95142
-4.97515
-5.00122
-5.02937
-5.05924
-5.09048
-5.12273
-5.15562
-5.18879
-5.22191
-5.25467
-5.28678
-5.318
-5.34813
-5.37697
-5.40438
-5.43021
-5.45435
-5.47669
-5.49714
-5.51562
-5.53204
-5.54632
-5.55839
-5.56817
-5.57559
-5.58056
-5.58301
-5.58287
-5.58005
-5.57448
-5.56608
-5.55477
-5.54048
-5.52313
-5.50265
-5.47897
-5.45203
-5.42176
-5.38811
-5.35102
-5.31044
-5.26633
-5.21866
-5.1674
-5.11252
-5.05402
-4.99193
-4.9263
-4.85713
-4.78431
-4.70776
-4.62737
-4.54327
-4.45555
-4.36427
-4.26947
-4.17121
-4.06953
-3.9645
-3.85618
-3.74464
-3.62996
-3.51222
-3.3915
-3.26789
-3.1415
-3.01243
-2.88078
-2.74667
-2.6102
-2.4715
-2.3307
-2.18791
-2.04327
-1.8969
-1.74894
-1.59952
-1.44877
-1.29684
-1.14384
-0.989923
-0.835214
-0.679846
-0.523948
-0.367647
-0.211065
-0.0543218
0.102468
0.259196
0.415757
0.572055
0.728
0.883509
1.03851
1.19293
1.34672
1.49984
1.65225
1.80392
1.95484
2.105
2.25443
2.40314
2.55117
2.69856
2.84537
2.99167
3.13754
3.28306
3.42835
3.5735
3.71863
3.86386
4.00931
4.15511
4.30138
4.44825
4.59583
4.74422
4.89353
5.04384
5.19521
5.34765
5.50105
5.6553
5.81028
5.96588
6.12194
6.27822
6.4344
6.59012
6.74492
6.89827
7.04959
7.19821
7.34342
7.48443
7.62043
7.75058
7.874
7.98986
8.09733
8.19566
8.28417
8.36234
8.42977
8.4863
8.532
8.56722
8.59269
8.60955
8.61949
8.62492
8.62938
8.63807
8.6605
8.71207
8.83527
9.03362
-4.80788
-4.80816
-4.80986
-4.81284
-4.81587
-4.8181
-4.81906
-4.81892
-4.81829
-4.81791
-4.81837
-4.82004
-4.8231
-4.82766
-4.83392
-4.84216
-4.8527
-4.86581
-4.88174
-4.90059
-4.92236
-4.94691
-4.97399
-5.00325
-5.03427
-5.06663
-5.09991
-5.13368
-5.16758
-5.20128
-5.23446
-5.26688
-5.29832
-5.32858
-5.35752
-5.38501
-5.41091
-5.43514
-5.4576
-5.47821
-5.49688
-5.51355
-5.52813
-5.54055
-5.55073
-5.55861
-5.56409
-5.56711
-5.56758
-5.56543
-5.56057
-5.55292
-5.54241
-5.52896
-5.51249
-5.49294
-5.47022
-5.44428
-5.41504
-5.38246
-5.34648
-5.30704
-5.26411
-5.21764
-5.16761
-5.11398
-5.05673
-4.99583
-4.93123
-4.8629
-4.79074
-4.71482
-4.63543
-4.55248
-4.46598
-4.37593
-4.28237
-4.18534
-4.08489
-3.98108
-3.87396
-3.76361
-3.65009
-3.53349
-3.41388
-3.29137
-3.16604
-3.038
-2.90735
-2.77421
-2.63868
-2.50088
-2.36094
-2.21898
-2.07512
-1.9295
-1.78225
-1.63349
-1.48337
-1.33201
-1.17956
-1.02614
-0.871888
-0.716939
-0.56142
-0.40546
-0.249181
-0.0927057
0.0638504
0.220376
0.376765
0.532918
0.688741
0.84415
0.999067
1.15342
1.30716
1.46023
1.61258
1.7642
1.91507
2.06517
2.21451
2.36312
2.51101
2.65824
2.80485
2.95091
3.09649
3.24168
3.38658
3.53128
3.6759
3.82055
3.96536
4.11044
4.25593
4.40193
4.54858
4.69597
4.84421
4.99337
5.14354
5.29471
5.44677
5.5996
5.75314
5.90727
6.06183
6.2166
6.37127
6.52548
6.6788
6.83073
6.98068
7.12804
7.27208
7.41207
7.54721
7.67668
7.79963
7.91525
8.02273
8.12134
8.21043
8.28949
8.35813
8.4162
8.46376
8.50119
8.5292
8.54891
8.56202
8.57089
8.57902
8.59136
8.61653
8.66443
8.76459
8.91966
-4.79994
-4.80318
-4.80682
-4.81016
-4.81225
-4.81287
-4.81224
-4.81084
-4.80932
-4.80826
-4.80815
-4.80936
-4.8122
-4.81694
-4.82385
-4.83318
-4.84515
-4.8599
-4.87746
-4.89777
-4.92068
-4.94594
-4.97326
-5.00229
-5.03268
-5.06406
-5.09609
-5.12844
-5.16082
-5.19295
-5.2246
-5.25555
-5.28561
-5.31463
-5.34245
-5.36896
-5.39402
-5.41755
-5.43945
-5.45961
-5.47796
-5.49442
-5.5089
-5.52132
-5.5316
-5.53965
-5.5454
-5.54876
-5.54965
-5.54799
-5.5437
-5.53668
-5.52687
-5.51418
-5.49853
-5.47985
-5.45806
-5.4331
-5.4049
-5.37339
-5.33853
-5.30026
-5.25853
-5.2133
-5.16454
-5.1122
-5.05627
-4.9967
-4.93346
-4.86652
-4.79593
-4.72164
-4.64375
-4.56228
-4.47725
-4.38867
-4.29659
-4.20104
-4.10207
-3.99972
-3.89405
-3.78513
-3.67303
-3.55783
-3.4396
-3.31844
-3.19444
-3.0677
-2.93832
-2.8064
-2.67207
-2.53543
-2.3966
-2.25572
-2.11289
-1.96826
-1.82195
-1.67409
-1.52482
-1.37426
-1.22256
-1.06985
-0.916256
-0.761916
-0.606959
-0.451514
-0.295707
-0.139659
0.0165121
0.172692
0.328772
0.48465
0.640231
0.795425
0.95015
1.10434
1.25792
1.41084
1.56305
1.71453
1.86525
2.0152
2.16437
2.31279
2.46046
2.60743
2.75374
2.89945
3.04464
3.18937
3.33374
3.47785
3.6218
3.76571
3.90969
4.05386
4.19834
4.34325
4.4887
4.6348
4.78164
4.92928
5.07779
5.22717
5.37742
5.52847
5.68026
5.83263
5.98541
6.13838
6.29127
6.44371
6.59531
6.74558
6.89397
7.03987
7.1826
7.32144
7.45563
7.58437
7.70686
7.82228
7.92988
8.02894
8.11883
8.19905
8.26923
8.32922
8.3791
8.41921
8.45026
8.47337
8.49016
8.50293
8.51498
8.53081
8.55778
8.60266
8.68559
8.78942
-4.78096
-4.78815
-4.79518
-4.80042
-4.80339
-4.80455
-4.80452
-4.80395
-4.80345
-4.80359
-4.80484
-4.80758
-4.81213
-4.81875
-4.82764
-4.83896
-4.8528
-4.86917
-4.88801
-4.90919
-4.9325
-4.95772
-4.98457
-5.01278
-5.04205
-5.0721
-5.10265
-5.13343
-5.16421
-5.19476
-5.22488
-5.25438
-5.28309
-5.31086
-5.33756
-5.36307
-5.38726
-5.41003
-5.43129
-5.45093
-5.46887
-5.48502
-5.49928
-5.51158
-5.52182
-5.52993
-5.5358
-5.53936
-5.54052
-5.53919
-5.53528
-5.52872
-5.51941
-5.50727
-5.49223
-5.4742
-5.45311
-5.42889
-5.40146
-5.37077
-5.33676
-5.29936
-5.25854
-5.21423
-5.16641
-5.11503
-5.06006
-5.00148
-4.93926
-4.87337
-4.80385
-4.73072
-4.65398
-4.57367
-4.48979
-4.40238
-4.31147
-4.21708
-4.11926
-4.01806
-3.91354
-3.80576
-3.69479
-3.5807
-3.46357
-3.34349
-3.22055
-3.09485
-2.96648
-2.83555
-2.70218
-2.56648
-2.42856
-2.28855
-2.14656
-2.00274
-1.8572
-1.71008
-1.56151
-1.41163
-1.26056
-1.10844
-0.955406
-0.801588
-0.647118
-0.492125
-0.336735
-0.181071
-0.0252548
0.1306
0.286383
0.441988
0.597318
0.752281
0.906792
1.06077
1.21416
1.3669
1.51893
1.67022
1.82074
1.97048
2.11942
2.26759
2.41498
2.56165
2.70761
2.85294
2.99769
3.14194
3.28577
3.42928
3.57257
3.71575
3.85893
4.00222
4.14575
4.28963
4.43398
4.57889
4.72447
4.87077
5.01784
5.16568
5.3143
5.46371
5.61384
5.76455
5.91567
6.06697
6.2182
6.36901
6.51901
6.66773
6.81466
6.95919
7.10067
7.23841
7.37167
7.49966
7.62161
7.73674
7.8443
7.94359
8.03401
8.11505
8.18638
8.24783
8.29947
8.34166
8.37506
8.40075
8.42028
8.4358
8.45033
8.46773
8.4939
8.53294
8.5965
8.6598
-4.75571
-4.76686
-4.77856
-4.78723
-4.79255
-4.79567
-4.79755
-4.79892
-4.80046
-4.80273
-4.80621
-4.81127
-4.81819
-4.82715
-4.83828
-4.85166
-4.86729
-4.88511
-4.90502
-4.92687
-4.95046
-4.97559
-5.00202
-5.02952
-5.05784
-5.08675
-5.11604
-5.14547
-5.17486
-5.20401
-5.23275
-5.26092
-5.28837
-5.31497
-5.34059
-5.36511
-5.38841
-5.41041
-5.43098
-5.45004
-5.46749
-5.48324
-5.49719
-5.50925
-5.51934
-5.52736
-5.53321
-5.53682
-5.53808
-5.53691
-5.53321
-5.5269
-5.5179
-5.50611
-5.49145
-5.47385
-5.45321
-5.42948
-5.40258
-5.37244
-5.339
-5.3022
-5.26199
-5.21833
-5.17117
-5.12047
-5.0662
-5.00834
-4.94686
-4.88177
-4.81305
-4.74072
-4.66481
-4.58531
-4.50225
-4.41566
-4.32556
-4.23198
-4.13498
-4.03459
-3.93088
-3.8239
-3.71372
-3.60041
-3.48406
-3.36474
-3.24255
-3.11758
-2.98993
-2.85971
-2.72702
-2.59199
-2.45472
-2.31533
-2.17396
-2.03072
-1.88575
-1.73917
-1.59112
-1.44172
-1.29113
-1.13945
-0.986843
-0.833426
-0.679334
-0.524697
-0.369644
-0.214297
-0.0587793
0.0967938
0.25231
0.407662
0.562749
0.717478
0.871762
1.02552
1.17869
1.3312
1.483
1.63405
1.78432
1.9338
2.08246
2.23032
2.37739
2.52369
2.66927
2.81417
2.95845
3.10219
3.24547
3.38838
3.53102
3.67349
3.81591
3.95839
4.10105
4.24401
4.38737
4.53123
4.6757
4.82082
4.96665
5.11318
5.26043
5.40842
5.5571
5.70636
5.85603
6.0059
6.1557
6.30511
6.45376
6.60118
6.74686
6.89024
7.03066
7.16746
7.2999
7.42724
7.5487
7.66351
7.77096
7.87035
7.96108
8.04267
8.11476
8.17722
8.23008
8.27368
8.30867
8.33603
8.35724
8.37425
8.3897
8.40679
8.42995
8.46112
8.50656
8.53917
-4.73234
-4.74685
-4.76291
-4.77514
-4.78331
-4.78897
-4.79331
-4.79717
-4.80122
-4.80603
-4.81206
-4.81965
-4.82901
-4.84028
-4.85354
-4.86879
-4.88598
-4.90503
-4.92582
-4.94819
-4.97196
-4.99696
-5.02298
-5.04983
-5.07731
-5.10523
-5.13341
-5.16166
-5.18984
-5.21777
-5.24531
-5.27231
-5.29865
-5.3242
-5.34884
-5.37246
-5.39496
-5.41622
-5.43614
-5.45464
-5.4716
-5.48693
-5.50054
-5.51233
-5.52221
-5.53008
-5.53584
-5.5394
-5.54067
-5.53955
-5.53594
-5.52977
-5.52093
-5.50933
-5.4949
-5.47755
-5.4572
-5.43378
-5.4072
-5.37741
-5.34434
-5.30792
-5.26812
-5.22488
-5.17815
-5.12791
-5.07411
-5.01674
-4.95577
-4.8912
-4.82303
-4.75125
-4.67588
-4.59693
-4.51443
-4.42838
-4.33883
-4.2458
-4.14935
-4.04951
-3.94634
-3.8399
-3.73025
-3.61748
-3.50165
-3.38285
-3.26117
-3.13671
-3.00956
-2.87983
-2.74762
-2.61305
-2.47624
-2.3373
-2.19636
-2.05354
-1.90898
-1.76279
-1.61512
-1.4661
-1.31585
-1.16452
-1.01224
-0.859139
-0.705351
-0.551009
-0.396239
-0.241167
-0.0859159
0.0693971
0.224658
0.379759
0.534597
0.689076
0.843108
0.996612
1.14952
1.30176
1.45328
1.60404
1.754
1.90315
2.05146
2.19895
2.34562
2.4915
2.63662
2.78104
2.9248
3.06798
3.21066
3.35292
3.49488
3.63663
3.77828
3.91995
4.06176
4.20381
4.34622
4.48908
4.63249
4.77651
4.92118
5.06652
5.21256
5.3593
5.50672
5.65471
5.80311
5.95173
6.10031
6.24854
6.39603
6.54235
6.687
6.82941
6.96897
7.10499
7.23677
7.36356
7.48462
7.59917
7.70651
7.80595
7.8969
7.97887
8.05152
8.11468
8.16838
8.21294
8.24895
8.27733
8.29942
8.31696
8.33221
8.3477
8.36659
8.38922
8.41875
8.4277
-4.71703
-4.73344
-4.75249
-4.76766
-4.77844
-4.78658
-4.79338
-4.7997
-4.80621
-4.81347
-4.82188
-4.83174
-4.84325
-4.85649
-4.87149
-4.88823
-4.90665
-4.92663
-4.94805
-4.97077
-4.99463
-5.01947
-5.04513
-5.07143
-5.09822
-5.12534
-5.15262
-5.17994
-5.20713
-5.23407
-5.26063
-5.28668
-5.3121
-5.33677
-5.3606
-5.38346
-5.40526
-5.42589
-5.44525
-5.46324
-5.47976
-5.49472
-5.508
-5.51952
-5.52917
-5.53687
-5.5425
-5.54596
-5.54717
-5.54603
-5.54243
-5.53629
-5.52751
-5.516
-5.50167
-5.48444
-5.46423
-5.44096
-5.41455
-5.38494
-5.35207
-5.31587
-5.27629
-5.23328
-5.1868
-5.13682
-5.08329
-5.0262
-4.96554
-4.90128
-4.83343
-4.76198
-4.68694
-4.60832
-4.52614
-4.44043
-4.35121
-4.25852
-4.16239
-4.06289
-3.96005
-3.85394
-3.74463
-3.63219
-3.51669
-3.39822
-3.27687
-3.15274
-3.02591
-2.8965
-2.76461
-2.63036
-2.49386
-2.35522
-2.21458
-2.07206
-1.92779
-1.78189
-1.6345
-1.48575
-1.33578
-1.18471
-1.03269
-0.879849
-0.726318
-0.572229
-0.417711
-0.262892
-0.107893
0.0471655
0.202169
0.357008
0.511579
0.665783
0.819531
0.972742
1.12534
1.27726
1.42844
1.57885
1.72844
1.87719
2.02509
2.17214
2.31834
2.46372
2.60832
2.75217
2.89534
3.0379
3.17992
3.3215
3.46273
3.60371
3.74456
3.88539
4.02631
4.16745
4.3089
4.45077
4.59315
4.73611
4.87969
5.02392
5.16884
5.31445
5.46072
5.60757
5.75485
5.90236
6.04987
6.19705
6.34355
6.48893
6.6327
6.7743
6.91313
7.04851
7.17974
7.30609
7.42681
7.54115
7.64838
7.74785
7.83895
7.92118
7.99421
8.05784
8.1121
8.15726
8.19385
8.22273
8.24509
8.26244
8.27668
8.28974
8.30375
8.31792
8.33365
8.32412
-4.71199
-4.72891
-4.7493
-4.7663
-4.77904
-4.78918
-4.79804
-4.80644
-4.81504
-4.82432
-4.83468
-4.84636
-4.85954
-4.87427
-4.89057
-4.90839
-4.92767
-4.94829
-4.97013
-4.99307
-5.01695
-5.04164
-5.067
-5.09287
-5.11912
-5.14562
-5.17222
-5.19881
-5.22526
-5.25144
-5.27724
-5.30255
-5.32726
-5.35126
-5.37444
-5.39671
-5.41795
-5.43808
-5.45698
-5.47456
-5.49072
-5.50535
-5.51835
-5.52963
-5.53907
-5.54659
-5.55207
-5.55542
-5.55654
-5.55532
-5.55167
-5.54549
-5.53669
-5.52517
-5.51084
-5.49362
-5.47343
-5.45019
-5.42383
-5.39427
-5.36144
-5.32531
-5.28579
-5.24286
-5.19647
-5.14658
-5.09316
-5.03619
-4.97565
-4.91153
-4.84381
-4.77251
-4.69761
-4.61914
-4.53711
-4.45155
-4.36248
-4.26994
-4.17397
-4.07463
-3.97195
-3.86601
-3.75687
-3.6446
-3.52928
-3.41099
-3.28982
-3.16587
-3.03923
-2.91001
-2.77831
-2.64425
-2.50794
-2.3695
-2.22906
-2.08673
-1.94266
-1.79696
-1.64978
-1.50123
-1.35147
-1.20061
-1.04881
-0.896182
-0.742872
-0.589009
-0.434724
-0.280144
-0.125393
0.0294108
0.184149
0.338712
0.492993
0.646895
0.800326
0.953204
1.10545
1.257
1.4078
1.55779
1.70695
1.85524
2.00266
2.14919
2.29486
2.43968
2.58368
2.72691
2.86942
3.0113
3.1526
3.29343
3.43388
3.57405
3.71406
3.85401
3.99403
4.13423
4.27472
4.41561
4.55697
4.69889
4.84142
4.98461
5.12847
5.27303
5.41825
5.56405
5.71031
5.85683
6.00337
6.14963
6.29525
6.43981
6.58281
6.72371
6.8619
6.99673
7.12749
7.25346
7.37388
7.48802
7.59515
7.69459
7.78576
7.86814
7.94138
8.00528
8.05984
8.10528
8.1421
8.17104
8.19315
8.20976
8.22239
8.23247
8.24133
8.24745
8.25128
8.2272
-4.71689
-4.73314
-4.75339
-4.77102
-4.78486
-4.79633
-4.80665
-4.81659
-4.82673
-4.83752
-4.8493
-4.8623
-4.87665
-4.8924
-4.90957
-4.9281
-4.94792
-4.96893
-4.99101
-5.01404
-5.03789
-5.06244
-5.08755
-5.11309
-5.13894
-5.16498
-5.19109
-5.21715
-5.24305
-5.26869
-5.29395
-5.31873
-5.34293
-5.36644
-5.38917
-5.411
-5.43185
-5.45161
-5.47017
-5.48745
-5.50333
-5.51771
-5.53049
-5.54157
-5.55084
-5.5582
-5.56354
-5.56676
-5.56776
-5.56643
-5.56268
-5.5564
-5.54751
-5.53591
-5.5215
-5.50421
-5.48394
-5.46062
-5.43419
-5.40455
-5.37167
-5.33546
-5.29589
-5.25291
-5.20647
-5.15654
-5.10308
-5.04609
-4.98553
-4.92139
-4.85366
-4.78235
-4.70745
-4.62897
-4.54695
-4.46139
-4.37233
-4.2798
-4.18385
-4.08452
-3.98187
-3.87597
-3.76686
-3.65464
-3.53937
-3.42114
-3.30004
-3.17616
-3.04961
-2.92047
-2.78887
-2.65491
-2.5187
-2.38038
-2.24005
-2.09786
-1.95392
-1.80836
-1.66132
-1.51293
-1.36333
-1.21265
-1.06102
-0.908587
-0.755478
-0.601826
-0.447764
-0.29342
-0.138918
0.0156215
0.170081
0.324348
0.478316
0.631885
0.784964
0.937467
1.08932
1.24045
1.3908
1.54033
1.689
1.83677
1.98364
2.12961
2.27467
2.41886
2.5622
2.70475
2.84655
2.98768
3.12821
3.26824
3.40785
3.54717
3.6863
3.82535
3.96444
4.10369
4.24321
4.3831
4.52346
4.66437
4.80589
4.94806
5.09092
5.23448
5.37872
5.52356
5.66887
5.81448
5.96014
6.10556
6.25039
6.3942
6.53652
6.6768
6.81443
6.94876
7.0791
7.20472
7.32486
7.43879
7.54578
7.64515
7.73629
7.8187
7.892
7.95597
8.01059
8.05604
8.09274
8.12136
8.14283
8.15823
8.16881
8.17557
8.17925
8.17787
8.17145
8.13589
-4.72977
-4.74453
-4.76349
-4.78068
-4.79476
-4.80684
-4.81798
-4.82886
-4.84
-4.85177
-4.86447
-4.87831
-4.89338
-4.90976
-4.92743
-4.94636
-4.96646
-4.98765
-5.00982
-5.03285
-5.05663
-5.08104
-5.10595
-5.13125
-5.15682
-5.18255
-5.20833
-5.23404
-5.2596
-5.28489
-5.3098
-5.33425
-5.35813
-5.38133
-5.40377
-5.42534
-5.44594
-5.46546
-5.48381
-5.50089
-5.51659
-5.5308
-5.54342
-5.55435
-5.56348
-5.57069
-5.5759
-5.57898
-5.57985
-5.57838
-5.57449
-5.56808
-5.55904
-5.54728
-5.53272
-5.51527
-5.49484
-5.47136
-5.44475
-5.41495
-5.38189
-5.34552
-5.30578
-5.26264
-5.21604
-5.16595
-5.11235
-5.05521
-4.99451
-4.93024
-4.86238
-4.79094
-4.71591
-4.63732
-4.55518
-4.46951
-4.38034
-4.28772
-4.19168
-4.09227
-3.98954
-3.88357
-3.77441
-3.66214
-3.54684
-3.42858
-3.30747
-3.18358
-3.05703
-2.92791
-2.79633
-2.66241
-2.52625
-2.38798
-2.24773
-2.10561
-1.96175
-1.8163
-1.66937
-1.52111
-1.37165
-1.22111
-1.06965
-0.917393
-0.764476
-0.611034
-0.457197
-0.303095
-0.148854
0.00540366
0.159561
0.313504
0.467127
0.62033
0.773019
0.925107
1.07652
1.22718
1.37705
1.52605
1.67417
1.82137
1.96764
2.11297
2.25738
2.40088
2.5435
2.6853
2.82633
2.96665
3.10636
3.24554
3.38428
3.5227
3.66091
3.79902
3.93716
4.07544
4.21398
4.35288
4.49225
4.63216
4.77268
4.91387
5.05577
5.19838
5.34169
5.48561
5.63004
5.77479
5.91963
6.06428
6.20838
6.35151
6.49321
6.63291
6.77003
6.90391
7.03385
7.15912
7.27898
7.39267
7.49947
7.59869
7.68971
7.77203
7.84523
7.90909
7.96354
8.00874
8.04504
8.07302
8.09348
8.10733
8.11555
8.1188
8.11739
8.10912
8.09387
8.04922
-4.74799
-4.76074
-4.7776
-4.79352
-4.80709
-4.81912
-4.8305
-4.84178
-4.8534
-4.86569
-4.87888
-4.89316
-4.90861
-4.92528
-4.94318
-4.96226
-4.98246
-5.00368
-5.02583
-5.04881
-5.0725
-5.09678
-5.12155
-5.14669
-5.17208
-5.19763
-5.22323
-5.24876
-5.27414
-5.29925
-5.324
-5.34829
-5.37202
-5.39508
-5.41739
-5.43884
-5.45932
-5.47874
-5.49699
-5.51397
-5.52956
-5.54367
-5.55619
-5.56701
-5.57601
-5.58311
-5.58817
-5.59111
-5.59182
-5.59019
-5.58612
-5.57951
-5.57027
-5.55831
-5.54352
-5.52584
-5.50517
-5.48145
-5.45459
-5.42453
-5.39122
-5.35459
-5.3146
-5.2712
-5.22435
-5.17402
-5.12018
-5.06281
-5.00189
-4.93738
-4.8693
-4.79764
-4.7224
-4.64359
-4.56125
-4.47539
-4.38603
-4.29323
-4.19703
-4.09746
-3.9946
-3.88849
-3.77921
-3.66683
-3.55143
-3.4331
-3.31191
-3.18797
-3.06137
-2.93223
-2.80063
-2.66671
-2.53056
-2.39232
-2.2521
-2.11004
-1.96626
-1.82088
-1.67405
-1.5259
-1.37657
-1.22618
-1.07489
-0.922813
-0.770098
-0.616876
-0.46328
-0.309439
-0.155482
-0.00153002
0.152297
0.305887
0.459132
0.61193
0.764187
0.915817
1.06674
1.21689
1.36621
1.51464
1.66216
1.80873
1.95433
2.09898
2.24266
2.38541
2.52726
2.66826
2.80846
2.94794
3.08677
3.22506
3.36288
3.50037
3.63763
3.77478
3.91194
4.04924
4.18678
4.32469
4.46306
4.60198
4.74153
4.88177
5.02272
5.16442
5.30683
5.44988
5.59346
5.73741
5.88148
6.02541
6.16882
6.31132
6.45242
6.59158
6.72821
6.86165
6.99119
7.11611
7.23565
7.34907
7.45561
7.5546
7.6454
7.72748
7.80043
7.86399
7.91807
7.96277
7.9984
8.02547
8.04463
8.05665
8.06229
8.06194
8.05563
8.04109
8.01823
7.96639
-4.76878
-4.77926
-4.79353
-4.80756
-4.82004
-4.8315
-4.84262
-4.85385
-4.86555
-4.87797
-4.89131
-4.90572
-4.92128
-4.93802
-4.95595
-4.97502
-4.99518
-5.01635
-5.03843
-5.06132
-5.08492
-5.10912
-5.1338
-5.15885
-5.18418
-5.20967
-5.23521
-5.2607
-5.28604
-5.31114
-5.33587
-5.36016
-5.38388
-5.40695
-5.42927
-5.45071
-5.4712
-5.49061
-5.50884
-5.52579
-5.54134
-5.55539
-5.56784
-5.57856
-5.58746
-5.59442
-5.59934
-5.60212
-5.60263
-5.6008
-5.5965
-5.58965
-5.58015
-5.56791
-5.55284
-5.53486
-5.51389
-5.48985
-5.46267
-5.43229
-5.39865
-5.3617
-5.32138
-5.27766
-5.2305
-5.17987
-5.12573
-5.06806
-5.00683
-4.94204
-4.87367
-4.80172
-4.7262
-4.64713
-4.56453
-4.47842
-4.38884
-4.29581
-4.1994
-4.09963
-3.99659
-3.89031
-3.78088
-3.66836
-3.55284
-3.4344
-3.31312
-3.1891
-3.06244
-2.93325
-2.80163
-2.66769
-2.53155
-2.39332
-2.25315
-2.11113
-1.96742
-1.82213
-1.67541
-1.52738
-1.37819
-1.22796
-1.07684
-0.92497
-0.772477
-0.619499
-0.466168
-0.312618
-0.158974
-0.00536213
0.148099
0.301296
0.454119
0.606468
0.758247
0.90937
1.05976
1.20934
1.35806
1.50587
1.65273
1.79861
1.9435
2.0874
2.23031
2.37226
2.51328
2.65343
2.79276
2.93134
3.06926
3.2066
3.34348
3.48
3.61628
3.75244
3.88861
4.02491
4.16146
4.29837
4.43575
4.5737
4.71228
4.85158
4.99162
5.13242
5.27396
5.41618
5.55896
5.70213
5.84547
5.9887
6.13146
6.27334
6.41388
6.55251
6.68865
6.82164
6.95076
7.0753
7.19448
7.30756
7.41377
7.51242
7.60288
7.68458
7.75712
7.82019
7.87369
7.91768
7.9524
7.97829
7.99591
8.00589
8.00879
8.00485
7.99388
7.97366
7.94421
7.8867
-4.7896
-4.79772
-4.80914
-4.8209
-4.83187
-4.84237
-4.85286
-4.86371
-4.87516
-4.88743
-4.90068
-4.91501
-4.9305
-4.94716
-4.965
-4.98398
-5.00404
-5.02511
-5.0471
-5.06991
-5.09345
-5.1176
-5.14226
-5.16732
-5.19266
-5.21819
-5.24379
-5.26937
-5.2948
-5.31999
-5.34484
-5.36923
-5.39307
-5.41624
-5.43865
-5.46019
-5.48074
-5.5002
-5.51846
-5.53542
-5.55096
-5.56497
-5.57734
-5.58796
-5.59673
-5.60354
-5.60828
-5.61084
-5.61112
-5.60902
-5.60445
-5.5973
-5.58749
-5.57491
-5.5595
-5.54116
-5.51982
-5.49541
-5.46786
-5.4371
-5.40309
-5.36577
-5.32508
-5.28101
-5.2335
-5.18252
-5.12804
-5.07003
-5.00846
-4.94334
-4.87464
-4.80238
-4.72656
-4.6472
-4.56432
-4.47794
-4.38811
-4.29485
-4.19821
-4.09824
-3.99501
-3.88857
-3.77898
-3.66633
-3.55069
-3.43214
-3.31078
-3.18669
-3.05998
-2.93075
-2.79911
-2.66517
-2.52905
-2.39087
-2.25074
-2.10881
-1.96518
-1.82
-1.67341
-1.52553
-1.3765
-1.22646
-1.07556
-0.923915
-0.771678
-0.61898
-0.465954
-0.312734
-0.159447
-0.00621884
0.146831
0.299588
0.451942
0.603792
0.755043
0.905606
1.0554
1.20437
1.35244
1.49956
1.64571
1.79085
1.93497
2.07807
2.22016
2.36127
2.50142
2.64067
2.77908
2.91672
3.05368
3.19006
3.32596
3.46149
3.59677
3.73192
3.86709
4.00238
4.13792
4.27384
4.41024
4.54722
4.68486
4.82324
4.96238
5.10231
5.24301
5.38442
5.52642
5.66884
5.81148
5.95403
6.09615
6.23744
6.3774
6.51551
6.65115
6.78366
6.91234
7.03644
7.1552
7.26785
7.37363
7.47184
7.56181
7.64299
7.71493
7.77734
7.83005
7.8731
7.90669
7.93119
7.94706
7.95482
7.9549
7.94741
7.93203
7.9067
7.87152
7.8096
-4.80824
-4.81406
-4.8226
-4.8319
-4.84111
-4.85037
-4.85999
-4.87021
-4.88121
-4.89315
-4.90614
-4.92027
-4.93557
-4.95208
-4.96977
-4.98861
-5.00856
-5.02953
-5.05144
-5.0742
-5.09772
-5.12188
-5.14657
-5.1717
-5.19714
-5.22279
-5.24853
-5.27426
-5.29987
-5.32524
-5.35027
-5.37484
-5.39885
-5.42218
-5.44472
-5.46637
-5.48701
-5.50653
-5.52482
-5.54177
-5.55727
-5.5712
-5.58346
-5.59394
-5.60254
-5.60913
-5.61363
-5.61592
-5.61591
-5.6135
-5.60859
-5.60108
-5.5909
-5.57794
-5.56214
-5.5434
-5.52166
-5.49684
-5.46889
-5.43774
-5.40333
-5.36562
-5.32457
-5.28013
-5.23226
-5.18093
-5.12609
-5.06773
-5.00582
-4.94036
-4.87135
-4.79878
-4.72266
-4.64302
-4.55988
-4.47326
-4.38319
-4.28971
-4.19288
-4.09274
-3.98934
-3.88276
-3.77305
-3.66029
-3.54456
-3.42595
-3.30453
-3.18041
-3.05369
-2.92447
-2.79285
-2.65895
-2.52288
-2.38478
-2.24475
-2.10292
-1.95943
-1.8144
-1.66798
-1.52029
-1.37148
-1.22168
-1.07103
-0.919665
-0.767732
-0.615363
-0.462693
-0.309854
-0.156976
-0.0041833
0.148402
0.300665
0.452497
0.603794
0.754461
0.90441
1.05356
1.20185
1.34922
1.49561
1.64099
1.78534
1.92865
2.0709
2.21212
2.35233
2.49156
2.62988
2.76733
2.90401
3.03999
3.17537
3.31026
3.44478
3.57904
3.71319
3.84733
3.98162
4.11616
4.25109
4.38652
4.52255
4.65927
4.79674
4.93501
5.07409
5.21398
5.3546
5.49584
5.63754
5.77947
5.92136
6.06286
6.20354
6.34293
6.48049
6.6156
6.74759
6.87577
6.99937
7.11762
7.22975
7.33499
7.43261
7.52195
7.60245
7.67362
7.73516
7.78688
7.82879
7.86104
7.88393
7.89788
7.90329
7.90051
7.88954
7.87004
7.8401
7.79993
7.73464
-4.82288
-4.82671
-4.83244
-4.83925
-4.84658
-4.85445
-4.86304
-4.87249
-4.88291
-4.89441
-4.90706
-4.92091
-4.93599
-4.9523
-4.96984
-4.98854
-5.00838
-5.02926
-5.05112
-5.07386
-5.09738
-5.12158
-5.14635
-5.17158
-5.19715
-5.22295
-5.24887
-5.27479
-5.30058
-5.32615
-5.35136
-5.37611
-5.40027
-5.42374
-5.44639
-5.46812
-5.4888
-5.50832
-5.52658
-5.54346
-5.55885
-5.57264
-5.58471
-5.59498
-5.60332
-5.60964
-5.61383
-5.61579
-5.61543
-5.61265
-5.60735
-5.59945
-5.58886
-5.57549
-5.55928
-5.54013
-5.51798
-5.49276
-5.46441
-5.43287
-5.39809
-5.36003
-5.31863
-5.27386
-5.22566
-5.17399
-5.11882
-5.06013
-4.99791
-4.93216
-4.86286
-4.79003
-4.71367
-4.6338
-4.55044
-4.46363
-4.37338
-4.27976
-4.18279
-4.08253
-3.97904
-3.87237
-3.7626
-3.64981
-3.53405
-3.41543
-3.29403
-3.16995
-3.04327
-2.91411
-2.78258
-2.64878
-2.51284
-2.37487
-2.235
-2.09335
-1.95005
-1.80524
-1.65905
-1.51162
-1.36308
-1.21357
-1.06324
-0.912222
-0.760655
-0.608677
-0.456423
-0.304026
-0.151617
0.000678157
0.152739
0.304448
0.455697
0.606381
0.756406
0.905684
1.05414
1.2017
1.3483
1.49391
1.63848
1.78199
1.92442
2.06579
2.20609
2.34537
2.48365
2.621
2.75747
2.89315
3.02812
3.16248
3.29636
3.42985
3.5631
3.69623
3.82936
3.96265
4.0962
4.23016
4.36464
4.49973
4.63554
4.77213
4.90955
5.04781
5.1869
5.32675
5.46726
5.60825
5.7495
5.89073
6.03159
6.17166
6.31046
6.44743
6.58197
6.7134
6.84099
6.96401
7.08165
7.19314
7.2977
7.39459
7.48315
7.56277
7.63299
7.69346
7.74399
7.78455
7.81526
7.83637
7.84824
7.85121
7.84555
7.83122
7.80787
7.77381
7.72929
7.66147
-4.833
-4.83488
-4.83799
-4.84235
-4.84774
-4.85413
-4.86158
-4.87014
-4.87989
-4.89086
-4.9031
-4.91661
-4.93142
-4.9475
-4.96483
-4.98336
-5.00305
-5.02381
-5.04558
-5.06825
-5.09174
-5.11593
-5.14073
-5.16601
-5.19166
-5.21756
-5.24359
-5.26963
-5.29555
-5.32124
-5.34656
-5.37139
-5.39562
-5.41913
-5.44179
-5.46348
-5.4841
-5.50353
-5.52165
-5.53835
-5.55353
-5.56708
-5.57889
-5.58885
-5.59687
-5.60284
-5.60667
-5.60825
-5.6075
-5.60432
-5.59862
-5.59031
-5.57931
-5.56555
-5.54894
-5.5294
-5.50688
-5.4813
-5.45261
-5.42074
-5.38566
-5.34732
-5.30565
-5.2606
-5.21211
-5.16016
-5.10473
-5.04579
-4.98334
-4.91737
-4.84788
-4.77487
-4.69836
-4.61835
-4.53487
-4.44796
-4.35764
-4.26395
-4.16695
-4.06667
-3.96318
-3.85653
-3.7468
-3.63406
-3.51838
-3.39985
-3.27856
-3.1546
-3.02807
-2.89907
-2.76772
-2.63412
-2.49839
-2.36065
-2.22103
-2.07964
-1.93663
-1.79212
-1.64625
-1.49916
-1.35098
-1.20186
-1.05193
-0.90134
-0.750223
-0.59872
-0.446966
-0.295094
-0.143237
0.00847988
0.159935
0.31101
0.461598
0.611592
0.7609
0.909432
1.05711
1.20387
1.34965
1.4944
1.63809
1.7807
1.92221
2.06263
2.20197
2.34026
2.47755
2.61389
2.74934
2.88399