/*--------------------------------*- C++ -*----------------------------------*\
| =========                 |                                                 |
| \\      /  F ield         | OpenFOAM: The Open Source CFD Toolbox           |
|  \\    /   O peration     | Version:  2412                                  |
|   \\  /    A nd           | Website:  www.openfoam.com                      |
|    \\/     M anipulation  |                                                 |
\*---------------------------------------------------------------------------*/
FoamFile
{
    version     2.0;
    format      ascii;
    arch        "LSB;label=32;scalar=64";
    class       surfaceScalarField;
    location    "0.09";
    object      phi;
}
// * * * * * * * * * * * * * * * * * * * * * * * * * * * * * * * * * * * * * //

dimensions      [0 3 -1 0 0 0 0];

oriented        oriented;

internalField   nonuniform List<scalar> 
24170
(
1.36706e-07
-5.7162e-08
1.95621e-07
-5.89149e-08
2.57918e-07
-6.22969e-08
3.11672e-07
-5.37542e-08
3.6181e-07
-5.01375e-08
4.07919e-07
-4.61088e-08
4.49564e-07
-4.16453e-08
4.87087e-07
-3.75237e-08
5.20876e-07
-3.37882e-08
5.51266e-07
-3.03903e-08
5.78584e-07
-2.73179e-08
6.03122e-07
-2.45385e-08
6.25127e-07
-2.20046e-08
6.4478e-07
-1.96531e-08
6.62232e-07
-1.74524e-08
6.77398e-07
-1.51654e-08
6.90445e-07
-1.30474e-08
-9.12032e-09
6.99566e-07
3.26112e-07
-1.24822e-07
3.94132e-07
-1.26935e-07
4.55886e-07
-1.24051e-07
5.14184e-07
-1.12052e-07
5.67678e-07
-1.03631e-07
6.16633e-07
-9.5064e-08
6.61273e-07
-8.62857e-08
7.01823e-07
-7.80733e-08
7.38579e-07
-7.05443e-08
7.71862e-07
-6.36735e-08
8.01979e-07
-5.74345e-08
8.29204e-07
-5.17639e-08
8.53773e-07
-4.65735e-08
8.75871e-07
-4.17509e-08
8.95623e-07
-3.72044e-08
9.13053e-07
-3.25957e-08
9.28261e-07
-2.82552e-08
-2.11239e-08
9.40265e-07
5.17244e-07
-1.7161e-07
5.79151e-07
-1.88841e-07
6.3821e-07
-1.8311e-07
6.95366e-07
-1.69209e-07
7.48178e-07
-1.56443e-07
7.96781e-07
-1.43668e-07
8.41424e-07
-1.30929e-07
8.82241e-07
-1.1889e-07
9.19449e-07
-1.07752e-07
9.53312e-07
-9.75364e-08
9.84091e-07
-8.82139e-08
1.01203e-06
-7.97015e-08
1.03734e-06
-7.18809e-08
1.06019e-06
-6.46021e-08
1.0807e-06
-5.77119e-08
1.09897e-06
-5.08678e-08
1.11479e-06
-4.4079e-08
-3.45798e-08
1.12825e-06
7.4348e-07
-1.9542e-07
7.9192e-07
-2.37281e-07
8.43829e-07
-2.35019e-07
8.96361e-07
-2.2174e-07
9.46022e-07
-2.06104e-07
9.92299e-07
-1.89945e-07
1.03521e-06
-1.7384e-07
1.07476e-06
-1.58435e-07
1.11104e-06
-1.44041e-07
1.14426e-06
-1.30748e-07
1.17459e-06
-1.18544e-07
1.20223e-06
-1.07345e-07
1.22736e-06
-9.70132e-08
1.25013e-06
-8.73753e-08
1.27065e-06
-7.82329e-08
1.28903e-06
-6.92406e-08
1.30512e-06
-6.01683e-08
-4.89325e-08
1.31947e-06
1.01492e-06
-1.99874e-07
1.04731e-06
-2.69665e-07
1.08853e-06
-2.76244e-07
1.13339e-06
-2.66601e-07
1.17752e-06
-2.5023e-07
1.21952e-06
-2.3194e-07
1.25901e-06
-2.1333e-07
1.2958e-06
-1.95227e-07
1.32985e-06
-1.78097e-07
1.36124e-06
-1.62138e-07
1.39008e-06
-1.47381e-07
1.41649e-06
-1.33757e-07
1.44061e-06
-1.2113e-07
1.46255e-06
-1.09319e-07
1.48242e-06
-9.80993e-08
1.50032e-06
-8.7138e-08
1.51625e-06
-7.61059e-08
-6.35305e-08
1.53085e-06
1.33808e-06
-1.90515e-07
1.35426e-06
-2.85849e-07
1.38245e-06
-3.04426e-07
1.41695e-06
-3.01109e-07
1.45316e-06
-2.86434e-07
1.48883e-06
-2.67611e-07
1.52312e-06
-2.47616e-07
1.55558e-06
-2.27687e-07
1.586e-06
-2.08518e-07
1.61431e-06
-1.90452e-07
1.64053e-06
-1.73598e-07
1.6647e-06
-1.57927e-07
1.6869e-06
-1.43326e-07
1.7072e-06
-1.2962e-07
1.72569e-06
-1.16588e-07
1.74247e-06
-1.03927e-07
1.75767e-06
-9.1303e-08
-7.77175e-08
1.77186e-06
1.71767e-06
-1.72904e-07
1.7193e-06
-2.87479e-07
1.73353e-06
-3.18655e-07
1.75571e-06
-3.23293e-07
1.78183e-06
-3.12547e-07
1.80916e-06
-2.94946e-07
1.83642e-06
-2.74876e-07
1.8629e-06
-2.54168e-07
1.8882e-06
-2.33813e-07
1.91209e-06
-2.14342e-07
1.93446e-06
-1.95976e-07
1.95529e-06
-1.78753e-07
1.97457e-06
-1.62603e-07
1.99233e-06
-1.47381e-07
2.00863e-06
-1.32889e-07
2.02358e-06
-1.18874e-07
2.03732e-06
-1.05051e-07
-9.07732e-08
2.05038e-06
2.15734e-06
-1.51549e-07
2.14717e-06
-2.77315e-07
2.14804e-06
-3.19528e-07
2.15704e-06
-3.32289e-07
2.17147e-06
-3.26978e-07
2.18873e-06
-3.12206e-07
2.20726e-06
-2.93408e-07
2.22615e-06
-2.73061e-07
2.24483e-06
-2.52484e-07
2.26291e-06
-2.32422e-07
2.28017e-06
-2.1324e-07
2.29648e-06
-1.95066e-07
2.31177e-06
-1.77893e-07
2.32602e-06
-1.61625e-07
2.33924e-06
-1.4611e-07
2.35152e-06
-1.31155e-07
2.36302e-06
-1.16549e-07
-1.01906e-07
2.37415e-06
2.66011e-06
-1.29471e-07
2.64127e-06
-2.58471e-07
2.63056e-06
-3.08827e-07
2.62679e-06
-3.28511e-07
2.62887e-06
-3.29063e-07
2.63491e-06
-3.18241e-07
2.64338e-06
-3.01878e-07
2.6533e-06
-2.8298e-07
2.66398e-06
-2.63164e-07
2.67494e-06
-2.43383e-07
2.68585e-06
-2.2415e-07
2.69648e-06
-2.05702e-07
2.7067e-06
-1.88112e-07
2.71642e-06
-1.71347e-07
2.72563e-06
-1.55313e-07
2.73436e-06
-1.39888e-07
2.74275e-06
-1.24943e-07
-1.10276e-07
2.75112e-06
3.22873e-06
-1.08347e-07
3.204e-06
-2.33735e-07
3.18407e-06
-2.88899e-07
3.16903e-06
-3.13472e-07
3.15922e-06
-3.19249e-07
3.15375e-06
-3.12771e-07
3.15146e-06
-2.99596e-07
3.15149e-06
-2.83006e-07
3.15315e-06
-2.64823e-07
3.15592e-06
-2.4615e-07
3.1594e-06
-2.27633e-07
3.16331e-06
-2.09616e-07
3.16745e-06
-1.92253e-07
3.17169e-06
-1.75584e-07
3.17596e-06
-1.59582e-07
3.18026e-06
-1.4419e-07
3.18469e-06
-1.29367e-07
-1.15031e-07
3.18944e-06
3.8657e-06
-8.90222e-08
3.83718e-06
-2.05206e-07
3.81025e-06
-2.61971e-07
3.78605e-06
-2.89279e-07
3.76576e-06
-2.98959e-07
3.74949e-06
-2.96496e-07
3.73662e-06
-2.86724e-07
3.72653e-06
-2.72917e-07
3.71869e-06
-2.5698e-07
3.71262e-06
-2.40083e-07
3.70794e-06
-2.22955e-07
3.70435e-06
-2.0602e-07
3.7016e-06
-1.89509e-07
3.69955e-06
-1.73528e-07
3.69808e-06
-1.58113e-07
3.69716e-06
-1.43268e-07
3.69682e-06
-1.29027e-07
-1.15379e-07
3.69716e-06
3.81123e-06
-7.3349e-08
3.78552e-06
-1.79492e-07
3.75883e-06
-2.35283e-07
3.73299e-06
-2.6344e-07
3.70931e-06
-2.75276e-07
3.68837e-06
-2.75557e-07
3.67007e-06
-2.68432e-07
3.65417e-06
-2.5701e-07
3.64036e-06
-2.43177e-07
3.62838e-06
-2.28097e-07
3.61794e-06
-2.12517e-07
3.60882e-06
-1.96901e-07
3.60083e-06
-1.81523e-07
3.59384e-06
-1.66532e-07
3.58773e-06
-1.52009e-07
3.58247e-06
-1.38003e-07
3.57799e-06
-1.24546e-07
-1.11875e-07
3.57448e-06
5.03713e-06
-5.7717e-08
5.00707e-06
-1.49432e-07
4.9736e-06
-2.0182e-07
4.93952e-06
-2.29351e-07
4.90651e-06
-2.42276e-07
4.87574e-06
-2.44782e-07
4.84749e-06
-2.40186e-07
4.82175e-06
-2.31266e-07
4.7984e-06
-2.19822e-07
4.77726e-06
-2.06962e-07
4.75815e-06
-1.93403e-07
4.74086e-06
-1.79614e-07
4.72523e-06
-1.65891e-07
4.71111e-06
-1.52414e-07
4.6984e-06
-1.39295e-07
4.68701e-06
-1.26617e-07
4.6769e-06
-1.14438e-07
-1.03096e-07
4.66812e-06
6.66244e-06
-4.2682e-08
6.62912e-06
-1.1612e-07
6.58917e-06
-1.61863e-07
6.5467e-06
-1.8688e-07
6.50385e-06
-1.99427e-07
6.46228e-06
-2.03218e-07
6.4228e-06
-2.00703e-07
6.38567e-06
-1.94132e-07
6.35097e-06
-1.85129e-07
6.31871e-06
-1.74703e-07
6.28882e-06
-1.63504e-07
6.26117e-06
-1.51968e-07
6.23566e-06
-1.40383e-07
6.21219e-06
-1.28938e-07
6.19065e-06
-1.17759e-07
6.17097e-06
-1.0694e-07
6.1531e-06
-9.65618e-08
-8.69874e-08
6.13699e-06
8.79086e-06
-2.88795e-08
8.75646e-06
-8.17167e-08
8.71175e-06
-1.17154e-07
8.66207e-06
-1.37202e-07
8.61013e-06
-1.47483e-07
8.55804e-06
-1.51128e-07
8.50717e-06
-1.49837e-07
8.45821e-06
-1.45172e-07
8.4115e-06
-1.38419e-07
8.36722e-06
-1.30428e-07
8.32546e-06
-1.21739e-07
8.28621e-06
-1.12719e-07
8.24945e-06
-1.03621e-07
8.21513e-06
-9.46187e-08
8.1832e-06
-8.58303e-08
8.15361e-06
-7.73481e-08
8.12629e-06
-6.92397e-08
-6.18826e-08
8.10118e-06
1.15181e-05
-1.66057e-08
1.14848e-05
-4.84144e-08
1.14383e-05
-7.07491e-08
1.13845e-05
-8.33728e-08
1.13264e-05
-8.93956e-08
1.12664e-05
-9.11317e-08
1.12063e-05
-8.97251e-08
1.11472e-05
-8.60895e-08
1.10899e-05
-8.10555e-08
1.10347e-05
-7.52165e-08
1.09819e-05
-6.89471e-08
1.09317e-05
-6.24977e-08
1.08841e-05
-5.60472e-08
1.08392e-05
-4.97223e-08
1.0797e-05
-4.36169e-08
1.07574e-05
-3.78076e-08
1.07205e-05
-3.23218e-08
-2.75435e-08
1.06862e-05
1.48842e-05
-5.3987e-09
1.48525e-05
-1.66972e-08
1.48063e-05
-2.45203e-08
1.47511e-05
-2.81443e-08
1.46904e-05
-2.87317e-08
1.46267e-05
-2.74514e-08
1.45619e-05
-2.48918e-08
1.44972e-05
-2.14498e-08
1.44337e-05
-1.7505e-08
1.43718e-05
-1.33511e-08
1.4312e-05
-9.17235e-09
1.42546e-05
-5.08662e-09
1.41998e-05
-1.18598e-09
1.41476e-05
2.49057e-09
1.40981e-05
5.88167e-09
1.40513e-05
8.944e-09
1.40073e-05
1.17072e-08
1.38204e-08
1.39659e-05
1.8769e-05
6.27674e-09
1.87365e-05
1.58367e-08
1.86883e-05
2.36706e-08
1.86301e-05
3.00468e-08
1.85661e-05
3.53065e-08
1.84989e-05
3.97147e-08
1.84306e-05
4.34387e-08
1.83625e-05
4.66018e-08
1.82957e-05
4.92987e-08
1.82308e-05
5.15958e-08
1.81681e-05
5.35377e-08
1.81078e-05
5.51541e-08
1.80502e-05
5.64651e-08
1.79952e-05
5.74815e-08
1.79429e-05
5.82085e-08
1.78932e-05
5.86333e-08
1.78461e-05
5.88147e-08
5.84921e-08
1.78014e-05
2.26768e-05
1.70067e-08
2.26399e-05
5.27889e-08
2.25835e-05
8.00681e-08
2.25149e-05
9.86416e-08
2.24392e-05
1.11004e-07
2.23597e-05
1.1916e-07
2.2279e-05
1.24171e-07
2.21988e-05
1.26812e-07
2.21203e-05
1.27781e-07
2.20443e-05
1.27601e-07
2.19712e-05
1.26612e-07
2.19013e-05
1.2504e-07
2.18347e-05
1.23046e-07
2.17715e-05
1.20741e-07
2.17115e-05
1.18203e-07
2.16546e-05
1.1548e-07
2.16008e-05
1.12631e-07
1.09515e-07
2.15498e-05
1.5604e-05
3.26514e-08
1.55641e-05
9.26458e-08
1.55091e-05
1.35077e-07
1.54457e-05
1.62069e-07
1.53777e-05
1.78923e-07
1.53081e-05
1.88853e-07
1.52386e-05
1.93578e-07
1.51709e-05
1.94558e-07
1.51056e-05
1.93035e-07
1.50434e-05
1.89874e-07
1.49843e-05
1.85638e-07
1.49287e-05
1.80714e-07
1.48763e-05
1.75375e-07
1.48273e-05
1.69812e-07
1.47813e-05
1.64156e-07
1.47383e-05
1.58498e-07
1.4698e-05
1.529e-07
1.47302e-07
1.46602e-05
1.23902e-05
5.12424e-08
1.23448e-05
1.38117e-07
1.22864e-05
1.93433e-07
1.22225e-05
2.25948e-07
1.21566e-05
2.44813e-07
1.20914e-05
2.5414e-07
1.20285e-05
2.56465e-07
1.19689e-05
2.54117e-07
1.19131e-05
2.48851e-07
1.18612e-05
2.4179e-07
1.18132e-05
2.33658e-07
1.17689e-05
2.24957e-07
1.17283e-05
2.16026e-07
1.1691e-05
2.07093e-07
1.16568e-05
1.98305e-07
1.16256e-05
1.8976e-07
1.1597e-05
1.81502e-07
1.7352e-07
1.15708e-05
9.55928e-06
7.55489e-08
9.50978e-06
1.87617e-07
9.45372e-06
2.49498e-07
9.39691e-06
2.82757e-07
9.34172e-06
2.99999e-07
9.29016e-06
3.05709e-07
9.24315e-06
3.03468e-07
9.20085e-06
2.96416e-07
9.16311e-06
2.86596e-07
9.12966e-06
2.75238e-07
9.10018e-06
2.63141e-07
9.0743e-06
2.50837e-07
9.05166e-06
2.38668e-07
9.03191e-06
2.2684e-07
9.01474e-06
2.15477e-07
8.99985e-06
2.04647e-07
8.98698e-06
1.94368e-07
1.84644e-07
8.97586e-06
7.18003e-06
1.04967e-07
7.13264e-06
2.35007e-07
7.087e-06
2.95136e-07
7.04544e-06
3.24326e-07
7.00922e-06
3.36216e-07
6.97929e-06
3.35636e-07
6.95533e-06
3.27432e-07
6.93656e-06
3.15185e-07
6.92225e-06
3.00902e-07
6.91174e-06
2.85752e-07
6.9044e-06
2.70477e-07
6.89971e-06
2.5553e-07
6.89721e-06
2.41171e-07
6.89651e-06
2.27535e-07
6.89731e-06
2.14681e-07
6.89933e-06
2.02625e-07
6.90235e-06
1.91344e-07
1.80836e-07
6.90616e-06
5.24556e-06
1.38124e-07
5.20786e-06
2.72703e-07
5.18043e-06
3.22564e-07
5.16162e-06
3.43136e-07
5.15136e-06
3.46477e-07
5.1486e-06
3.38403e-07
5.15149e-06
3.24536e-07
5.15855e-06
3.08123e-07
5.16868e-06
2.90774e-07
5.18102e-06
2.7341e-07
5.19492e-06
2.56582e-07
5.20987e-06
2.40584e-07
5.22549e-06
2.25551e-07
5.2415e-06
2.11525e-07
5.25768e-06
1.98496e-07
5.27388e-06
1.86423e-07
5.28998e-06
1.75251e-07
1.64965e-07
5.30585e-06
3.71461e-06
1.71646e-07
3.69607e-06
2.91244e-07
3.69443e-06
3.2421e-07
3.70435e-06
3.33212e-07
3.72343e-06
3.27398e-07
3.74841e-06
3.13425e-07
3.77672e-06
2.96225e-07
3.80681e-06
2.78027e-07
3.8377e-06
2.59889e-07
3.86869e-06
2.42418e-07
3.89933e-06
2.25939e-07
3.92933e-06
2.10586e-07
3.9585e-06
1.96388e-07
3.98671e-06
1.8331e-07
4.01391e-06
1.71292e-07
4.04008e-06
1.60256e-07
4.0652e-06
1.50127e-07
1.40887e-07
4.08928e-06
2.5354e-06
1.96845e-07
2.54624e-06
2.80398e-07
2.57486e-06
2.95592e-07
2.61418e-06
2.93889e-07
2.65964e-06
2.81938e-07
2.70725e-06
2.65817e-07
2.75498e-06
2.48498e-07
2.80182e-06
2.31181e-07
2.8472e-06
2.14516e-07
2.89076e-06
1.98856e-07
2.93235e-06
1.84349e-07
2.97191e-06
1.71022e-07
3.00947e-06
1.58834e-07
3.04506e-06
1.47714e-07
3.07878e-06
1.37574e-07
3.11071e-06
1.28325e-07
3.14095e-06
1.19885e-07
1.12255e-07
3.16959e-06
1.65469e-06
1.99258e-07
1.70056e-06
2.3453e-07
1.75708e-06
2.39077e-07
1.81982e-06
2.31147e-07
1.88377e-06
2.17987e-07
1.94597e-06
2.03618e-07
2.00555e-06
1.88919e-07
2.06214e-06
1.7459e-07
2.11556e-06
1.61097e-07
2.1658e-06
1.48619e-07
2.21295e-06
1.37198e-07
2.25716e-06
1.26809e-07
2.29861e-06
1.17386e-07
2.33747e-06
1.08848e-07
2.37394e-06
1.01106e-07
2.40819e-06
9.40801e-08
2.44038e-06
8.769e-08
8.19737e-08
2.47066e-06
1.01827e-06
1.63846e-07
1.09488e-06
1.57923e-07
1.17024e-06
1.6372e-07
1.24669e-06
1.54696e-07
1.32008e-06
1.44596e-07
1.38906e-06
1.3464e-07
1.45368e-06
1.24291e-07
1.51402e-06
1.1426e-07
1.57015e-06
1.04959e-07
1.62232e-06
9.64528e-08
1.67079e-06
8.873e-08
1.71584e-06
8.1755e-08
1.75776e-06
7.54684e-08
1.79681e-06
6.98012e-08
1.83323e-06
6.46855e-08
1.86725e-06
6.00607e-08
1.89909e-06
5.58472e-08
5.21207e-08
1.92894e-06
5.69237e-07
8.45264e-08
6.5898e-07
6.81787e-08
7.4076e-07
8.19398e-08
8.20854e-07
7.46031e-08
8.9585e-07
6.96002e-08
9.65399e-07
6.50902e-08
1.02982e-06
5.98742e-08
1.08932e-06
5.47584e-08
1.14418e-06
5.00923e-08
1.19477e-06
4.58654e-08
1.24145e-06
4.20482e-08
1.28459e-06
3.86202e-08
1.32451e-06
3.55475e-08
1.36152e-06
3.27903e-08
1.3959e-06
3.03103e-08
1.42788e-06
2.80789e-08
1.4577e-06
2.6024e-08
2.41944e-08
1.48563e-06
2.22451e-07
2.90629e-07
3.72569e-07
4.47172e-07
5.16772e-07
5.81862e-07
6.41737e-07
6.96495e-07
7.46587e-07
7.92453e-07
8.34501e-07
8.73121e-07
9.08669e-07
9.41459e-07
9.71769e-07
9.99848e-07
1.02587e-06
1.05007e-06
2.79629e-08
-2.79629e-08
6.34466e-08
-3.54837e-08
9.43895e-08
-3.0943e-08
1.16942e-07
-2.2552e-08
1.29563e-07
-1.26219e-08
1.31972e-07
-2.40885e-09
1.24497e-07
7.47522e-09
1.08792e-07
1.57051e-08
8.65839e-08
2.2208e-08
5.947e-08
2.71139e-08
2.85863e-08
3.08837e-08
-5.51065e-09
3.40969e-08
-4.28395e-08
3.73288e-08
-8.37362e-08
4.08967e-08
-1.28543e-07
4.4807e-08
-1.77436e-07
4.88933e-08
-2.30327e-07
5.28903e-08
-2.86872e-07
5.6545e-08
-3.46536e-07
5.96645e-08
-4.08661e-07
6.21245e-08
-4.72526e-07
6.38654e-08
-5.3741e-07
6.48838e-08
-6.02635e-07
6.52247e-08
-6.67605e-07
6.49699e-08
-7.31822e-07
6.42176e-08
-7.94878e-07
6.30559e-08
-8.56448e-07
6.15699e-08
-9.1629e-07
5.98423e-08
-9.74239e-07
5.79489e-08
-1.03019e-06
5.59555e-08
-1.08411e-06
5.39169e-08
-1.13599e-06
5.18767e-08
-1.18586e-06
4.98678e-08
-1.23377e-06
4.79136e-08
-1.2798e-06
4.60295e-08
-1.32402e-06
4.42241e-08
-1.36652e-06
4.25008e-08
-1.40738e-06
4.08591e-08
-1.44668e-06
3.92952e-08
-1.48448e-06
3.78039e-08
-1.52086e-06
3.63782e-08
-1.55587e-06
3.5011e-08
-1.58957e-06
3.36944e-08
-1.62199e-06
3.24212e-08
-1.65317e-06
3.11841e-08
-1.68315e-06
2.99764e-08
-1.71194e-06
2.87921e-08
-1.73957e-06
2.76257e-08
-1.76604e-06
2.64723e-08
-1.79137e-06
2.53278e-08
-1.81555e-06
2.41884e-08
-1.83861e-06
2.30512e-08
-1.86052e-06
2.19134e-08
-1.88129e-06
2.07732e-08
-1.90092e-06
1.96286e-08
-1.9194e-06
1.84782e-08
-1.93672e-06
1.73211e-08
-1.95288e-06
1.61561e-08
-1.96786e-06
1.49823e-08
-1.98166e-06
1.3799e-08
-1.99426e-06
1.2605e-08
-2.00566e-06
1.13991e-08
-2.01584e-06
1.01797e-08
-2.02478e-06
8.94388e-09
-2.03247e-06
7.68819e-09
-2.03888e-06
6.40865e-09
-2.04398e-06
5.09962e-09
-2.04774e-06
3.75426e-09
-2.0501e-06
2.36937e-09
-2.05104e-06
9.37681e-10
-2.05059e-06
-4.50405e-10
-2.04897e-06
-1.62686e-09
-2.04621e-06
-2.75682e-09
-2.04236e-06
-3.84749e-09
-2.03745e-06
-4.9157e-09
-2.03147e-06
-5.97017e-09
-2.02446e-06
-7.01414e-09
-2.01641e-06
-8.04845e-09
-2.00734e-06
-9.07292e-09
-1.99725e-06
-1.00868e-08
-1.98616e-06
-1.10891e-08
-1.97408e-06
-1.2079e-08
-1.96103e-06
-1.30553e-08
-1.94701e-06
-1.4017e-08
-1.93205e-06
-1.49632e-08
-1.91616e-06
-1.58929e-08
-1.89935e-06
-1.68051e-08
-1.88165e-06
-1.76989e-08
-1.86308e-06
-1.85736e-08
-1.84365e-06
-1.94281e-08
-1.82339e-06
-2.02618e-08
-1.80231e-06
-2.10738e-08
-1.78045e-06
-2.18636e-08
-1.75782e-06
-2.26302e-08
-1.73445e-06
-2.33733e-08
-1.71036e-06
-2.40921e-08
-1.68557e-06
-2.47861e-08
-1.66011e-06
-2.5455e-08
-1.63402e-06
-2.60983e-08
-1.6073e-06
-2.67159e-08
-1.57999e-06
-2.73073e-08
-1.55212e-06
-2.78727e-08
-1.52371e-06
-2.84118e-08
-1.49478e-06
-2.89249e-08
-1.46537e-06
-2.9412e-08
-1.4355e-06
-2.98738e-08
-1.40519e-06
-3.03105e-08
-1.37446e-06
-3.0723e-08
-1.34335e-06
-3.11121e-08
-1.31187e-06
-3.14788e-08
-1.28005e-06
-3.18244e-08
-1.2479e-06
-3.21503e-08
-1.21544e-06
-3.24582e-08
-1.18269e-06
-3.27501e-08
-1.14966e-06
-3.30282e-08
-1.11637e-06
-3.32948e-08
-1.08281e-06
-3.35528e-08
-1.04901e-06
-3.38051e-08
-1.01495e-06
-3.40549e-08
-9.80649e-07
-3.43059e-08
-9.46087e-07
-3.45618e-08
-9.1126e-07
-3.48269e-08
-8.76155e-07
-3.51053e-08
-8.40753e-07
-3.54018e-08
-8.05032e-07
-3.57212e-08
-7.68963e-07
-3.60687e-08
-7.32514e-07
-3.64494e-08
-6.95645e-07
-3.68689e-08
-6.58312e-07
-3.73325e-08
-6.20466e-07
-3.78459e-08
-5.82051e-07
-3.8415e-08
-5.43006e-07
-3.90452e-08
-5.03265e-07
-3.97416e-08
-4.62754e-07
-4.05101e-08
-4.21399e-07
-4.13557e-08
-3.79117e-07
-4.22822e-08
-3.35822e-07
-4.32945e-08
-2.91426e-07
-4.43963e-08
-2.45836e-07
-4.55893e-08
-1.98961e-07
-4.68752e-08
-1.50704e-07
-4.82568e-08
-1.00966e-07
-4.97385e-08
-4.96476e-08
-5.13183e-08
3.33514e-09
-5.29827e-08
5.80838e-08
-5.47486e-08
1.14719e-07
-5.66352e-08
1.73347e-07
-5.86281e-08
2.3409e-07
-6.07426e-08
2.97057e-07
-6.29675e-08
3.62345e-07
-6.52882e-08
4.30034e-07
-6.76889e-08
5.00188e-07
-7.01535e-08
5.72852e-07
-7.2664e-08
6.48053e-07
-7.52009e-08
7.25795e-07
-7.77426e-08
8.0606e-07
-8.02649e-08
8.88801e-07
-8.27412e-08
9.73944e-07
-8.51422e-08
1.06138e-06
-8.74361e-08
1.15097e-06
-8.95883e-08
1.24253e-06
-9.15621e-08
1.33585e-06
-9.33185e-08
1.43066e-06
-9.48162e-08
1.52668e-06
-9.60126e-08
1.62354e-06
-9.68634e-08
1.72086e-06
-9.7323e-08
1.81821e-06
-9.73445e-08
1.91509e-06
-9.6879e-08
2.01096e-06
-9.58748e-08
2.10524e-06
-9.42745e-08
2.19725e-06
-9.20101e-08
2.28624e-06
-8.89941e-08
2.37134e-06
-8.51011e-08
2.45147e-06
-8.01328e-08
2.52521e-06
-7.3732e-08
2.5904e-06
-6.51906e-08
2.64289e-06
-5.24936e-08
2.67389e-06
-3.10013e-08
2.65059e-06
2.32999e-08
1.16174e-07
2.53442e-06
2.98484e-08
-5.78112e-08
4.69062e-08
-5.25415e-08
5.14182e-08
-3.5455e-08
4.68449e-08
-1.79787e-08
3.53866e-08
-1.16362e-09
1.82504e-08
1.47274e-08
-3.75129e-09
2.94769e-08
-3.08816e-08
4.28354e-08
-6.32876e-08
5.4614e-08
-1.01056e-07
6.48828e-08
-1.44125e-07
7.39526e-08
-1.92258e-07
8.22295e-08
-2.44972e-07
9.00427e-08
-3.01607e-07
9.7532e-08
-3.61418e-07
1.04618e-07
-4.23599e-07
1.11074e-07
-4.87336e-07
1.16628e-07
-5.51845e-07
1.21054e-07
-6.16392e-07
1.24212e-07
-6.8033e-07
1.26062e-07
-7.43113e-07
1.26649e-07
-8.04313e-07
1.26084e-07
-8.63614e-07
1.24526e-07
-9.208e-07
1.22156e-07
-9.75738e-07
1.19156e-07
-1.02838e-06
1.15693e-07
-1.07872e-06
1.11918e-07
-1.12684e-06
1.0796e-07
-1.17282e-06
1.03926e-07
-1.21676e-06
9.99e-08
-1.25879e-06
9.59451e-08
-1.29902e-06
9.21059e-08
-1.33756e-06
8.84111e-08
-1.37453e-06
8.48767e-08
-1.41e-06
8.15085e-08
-1.44409e-06
7.83049e-08
-1.47684e-06
7.52586e-08
-1.50834e-06
7.23589e-08
-1.53864e-06
6.95928e-08
-1.56778e-06
6.69459e-08
-1.59581e-06
6.44035e-08
-1.62275e-06
6.19512e-08
-1.64863e-06
5.95752e-08
-1.67347e-06
5.72625e-08
-1.69729e-06
5.50011e-08
-1.72009e-06
5.27803e-08
-1.74189e-06
5.05905e-08
-1.76269e-06
4.84232e-08
-1.78249e-06
4.62711e-08
-1.80129e-06
4.41279e-08
-1.81909e-06
4.19882e-08
-1.83588e-06
3.98478e-08
-1.85167e-06
3.77028e-08
-1.86645e-06
3.55505e-08
-1.88021e-06
3.33886e-08
-1.89295e-06
3.12154e-08
-1.90466e-06
2.90298e-08
-1.91533e-06
2.68308e-08
-1.92497e-06
2.46179e-08
-1.93356e-06
2.2391e-08
-1.9411e-06
2.01498e-08
-1.9476e-06
1.78945e-08
-1.95304e-06
1.56253e-08
-1.95744e-06
1.33429e-08
-1.9608e-06
1.10482e-08
-1.96314e-06
8.74369e-09
-1.96447e-06
6.43307e-09
-1.96484e-06
4.12379e-09
-1.9643e-06
1.83072e-09
-1.96294e-06
-4.21873e-10
-1.96075e-06
-2.64277e-09
-1.95758e-06
-4.79569e-09
-1.95341e-06
-6.93048e-09
-1.94821e-06
-9.04971e-09
-1.94197e-06
-1.11537e-08
-1.93469e-06
-1.32429e-08
-1.92639e-06
-1.53168e-08
-1.91707e-06
-1.73741e-08
-1.90673e-06
-1.94132e-08
-1.89538e-06
-2.1432e-08
-1.88304e-06
-2.34286e-08
-1.86972e-06
-2.54008e-08
-1.85543e-06
-2.73465e-08
-1.84018e-06
-2.92637e-08
-1.82399e-06
-3.11504e-08
-1.80688e-06
-3.30046e-08
-1.78886e-06
-3.48244e-08
-1.76995e-06
-3.66081e-08
-1.75017e-06
-3.83539e-08
-1.72954e-06
-4.00601e-08
-1.70808e-06
-4.17252e-08
-1.6858e-06
-4.33475e-08
-1.66274e-06
-4.49257e-08
-1.63891e-06
-4.64583e-08
-1.61434e-06
-4.79441e-08
-1.58905e-06
-4.93818e-08
-1.56307e-06
-5.07706e-08
-1.53642e-06
-5.21094e-08
-1.50912e-06
-5.33975e-08
-1.4812e-06
-5.46342e-08
-1.45269e-06
-5.58191e-08
-1.42361e-06
-5.6952e-08
-1.39399e-06
-5.80327e-08
-1.36385e-06
-5.90614e-08
-1.33322e-06
-6.00384e-08
-1.30213e-06
-6.09645e-08
-1.2706e-06
-6.18406e-08
-1.23866e-06
-6.26681e-08
-1.20632e-06
-6.34486e-08
-1.17362e-06
-6.4184e-08
-1.14056e-06
-6.48769e-08
-1.10718e-06
-6.55301e-08
-1.07349e-06
-6.61467e-08
-1.03951e-06
-6.67308e-08
-1.00526e-06
-6.72864e-08
-9.70732e-07
-6.78186e-08
-9.35952e-07
-6.83326e-08
-9.00923e-07
-6.88342e-08
-8.65648e-07
-6.933e-08
-8.30127e-07
-6.9827e-08
-7.94356e-07
-7.03327e-08
-7.58327e-07
-7.08554e-08
-7.22029e-07
-7.14038e-08
-6.85444e-07
-7.1987e-08
-6.4855e-07
-7.26147e-08
-6.11322e-07
-7.32971e-08
-5.73726e-07
-7.40448e-08
-5.35726e-07
-7.48687e-08
-4.97279e-07
-7.57797e-08
-4.58336e-07
-7.67891e-08
-4.18842e-07
-7.79087e-08
-3.78738e-07
-7.91495e-08
-3.37957e-07
-8.05222e-08
-2.96429e-07
-8.20383e-08
-2.54077e-07
-8.3708e-08
-2.10819e-07
-8.55401e-08
-1.6657e-07
-8.75438e-08
-1.21239e-07
-8.97269e-08
-7.47334e-08
-9.20951e-08
-2.69558e-08
-9.46528e-08
2.21934e-08
-9.7406e-08
7.28184e-08
-1.00364e-07
1.25026e-07
-1.03526e-07
1.78942e-07
-1.06898e-07
2.34681e-07
-1.10488e-07
2.92346e-07
-1.143e-07
3.52056e-07
-1.18338e-07
4.13916e-07
-1.22602e-07
4.78026e-07
-1.27077e-07
5.44478e-07
-1.3174e-07
6.13351e-07
-1.36563e-07
6.84713e-07
-1.41515e-07
7.58611e-07
-1.46562e-07
8.35078e-07
-1.51667e-07
9.14122e-07
-1.56787e-07
9.95729e-07
-1.61873e-07
1.07986e-06
-1.66873e-07
1.16645e-06
-1.71729e-07
1.25539e-06
-1.76379e-07
1.34656e-06
-1.80754e-07
1.43978e-06
-1.84781e-07
1.53484e-06
-1.88383e-07
1.6315e-06
-1.91479e-07
1.72947e-06
-1.93984e-07
1.82842e-06
-1.95811e-07
1.92797e-06
-1.9687e-07
2.02769e-06
-1.97069e-07
2.12713e-06
-1.96312e-07
2.22575e-06
-1.94497e-07
2.32298e-06
-1.91511e-07
2.4182e-06
-1.87222e-07
2.51066e-06
-1.81462e-07
2.59956e-06
-1.73992e-07
2.68386e-06
-1.64437e-07
2.76227e-06
-1.52139e-07
2.83296e-06
-1.35888e-07
2.89321e-06
-1.1274e-07
2.94033e-06
-7.81248e-08
2.97625e-06
-1.26184e-08
1.06682e-07
2.98574e-06
8.41591e-09
-6.62271e-08
1.03759e-09
-4.51632e-08
-1.36452e-08
-2.07723e-08
-3.32404e-08
1.61661e-09
-5.67741e-08
2.237e-08
-8.39597e-08
4.1913e-08
-1.14718e-07
6.02352e-08
-1.49132e-07
7.7249e-08
-1.87368e-07
9.28501e-08
-2.29511e-07
1.07026e-07
-2.75434e-07
1.19876e-07
-3.24737e-07
1.31533e-07
-3.76772e-07
1.42077e-07
-4.30721e-07
1.51481e-07
-4.85727e-07
1.59624e-07
-5.40992e-07
1.66338e-07
-5.95842e-07
1.71479e-07
-6.49755e-07
1.74967e-07
-7.02355e-07
1.76811e-07
-7.53397e-07
1.77105e-07
-8.02752e-07
1.76003e-07
-8.50372e-07
1.73704e-07
-8.96271e-07
1.70425e-07
-9.40499e-07
1.66384e-07
-9.83129e-07
1.61785e-07
-1.02424e-06
1.56808e-07
-1.06393e-06
1.51607e-07
-1.10228e-06
1.46307e-07
-1.13936e-06
1.4101e-07
-1.17526e-06
1.3579e-07
-1.21001e-06
1.30701e-07
-1.24368e-06
1.25779e-07
-1.27632e-06
1.21045e-07
-1.30795e-06
1.16507e-07
-1.33861e-06
1.12165e-07
-1.36831e-06
1.08014e-07
-1.3971e-06
1.0404e-07
-1.42497e-06
1.0023e-07
-1.45194e-06
9.65666e-08
-1.47803e-06
9.30333e-08
-1.50324e-06
8.96125e-08
-1.52757e-06
8.62873e-08
-1.55104e-06
8.30415e-08
-1.57364e-06
7.98602e-08
-1.59536e-06
7.67296e-08
-1.61622e-06
7.36373e-08
-1.6362e-06
7.05721e-08
-1.6553e-06
6.75244e-08
-1.67352e-06
6.44857e-08
-1.69084e-06
6.14487e-08
-1.70726e-06
5.84075e-08
-1.72277e-06
5.5357e-08
-1.73736e-06
5.22933e-08
-1.75102e-06
4.92134e-08
-1.76375e-06
4.6115e-08
-1.77553e-06
4.29966e-08
-1.78636e-06
3.98574e-08
-1.79622e-06
3.66972e-08
-1.80512e-06
3.35163e-08
-1.81305e-06
3.03154e-08
-1.81999e-06
2.70957e-08
-1.82596e-06
2.3859e-08
-1.83094e-06
2.06074e-08
-1.83494e-06
1.73441e-08
-1.83796e-06
1.40727e-08
-1.84002e-06
1.07982e-08
-1.84111e-06
7.52699e-09
-1.84126e-06
4.26714e-09
-1.84045e-06
1.02778e-09
-1.83869e-06
-2.18142e-09
-1.83597e-06
-5.36444e-09
-1.83224e-06
-8.52315e-09
-1.82751e-06
-1.16663e-08
-1.82176e-06
-1.47953e-08
-1.81501e-06
-1.79094e-08
-1.80724e-06
-2.10062e-08
-1.79848e-06
-2.40833e-08
-1.78871e-06
-2.71377e-08
-1.77796e-06
-3.01663e-08
-1.76623e-06
-3.31659e-08
-1.75352e-06
-3.61334e-08
-1.73986e-06
-3.90655e-08
-1.72525e-06
-4.1959e-08
-1.7097e-06
-4.4811e-08
-1.69323e-06
-4.76183e-08
-1.67586e-06
-5.03782e-08
-1.65759e-06
-5.30877e-08
-1.63846e-06
-5.57441e-08
-1.61847e-06
-5.83449e-08
-1.59764e-06
-6.08875e-08
-1.57599e-06
-6.33696e-08
-1.55355e-06
-6.57888e-08
-1.53034e-06
-6.8143e-08
-1.50636e-06
-7.043e-08
-1.48166e-06
-7.26479e-08
-1.45625e-06
-7.47949e-08
-1.43015e-06
-7.68695e-08
-1.40339e-06
-7.88701e-08
-1.37599e-06
-8.07957e-08
-1.34798e-06
-8.26453e-08
-1.31938e-06
-8.44181e-08
-1.29022e-06
-8.61137e-08
-1.26052e-06
-8.77318e-08
-1.23031e-06
-8.92726e-08
-1.19961e-06
-9.07365e-08
-1.16845e-06
-9.21246e-08
-1.13685e-06
-9.34381e-08
-1.10484e-06
-9.4679e-08
-1.07244e-06
-9.58496e-08
-1.03967e-06
-9.69529e-08
-1.00656e-06
-9.79922e-08
-9.73113e-07
-9.89718e-08
-9.39364e-07
-9.98963e-08
-9.05323e-07
-1.00771e-07
-8.71006e-07
-1.01603e-07
-8.36425e-07
-1.02399e-07
-8.01591e-07
-1.03167e-07
-7.6651e-07
-1.03915e-07
-7.31186e-07
-1.04653e-07
-6.95622e-07
-1.05392e-07
-6.59813e-07
-1.06142e-07
-6.23753e-07
-1.06915e-07
-5.87432e-07
-1.07725e-07
-5.50833e-07
-1.08586e-07
-5.13937e-07
-1.0951e-07
-4.7672e-07
-1.10515e-07
-4.39149e-07
-1.11615e-07
-4.01191e-07
-1.12827e-07
-3.62805e-07
-1.14167e-07
-3.23942e-07
-1.15652e-07
-2.84552e-07
-1.17299e-07
-2.44575e-07
-1.19126e-07
-2.03949e-07
-1.21149e-07
-1.62604e-07
-1.23384e-07
-1.20465e-07
-1.25847e-07
-7.74517e-08
-1.28553e-07
-3.34804e-08
-1.31515e-07
1.15387e-08
-1.34746e-07
5.77e-08
-1.38256e-07
1.05102e-07
-1.42055e-07
1.53849e-07
-1.46152e-07
2.04043e-07
-1.50558e-07
2.55801e-07
-1.55284e-07
3.09249e-07
-1.60346e-07
3.6451e-07
-1.65749e-07
4.21693e-07
-1.71484e-07
4.80902e-07
-1.77547e-07
5.42232e-07
-1.83932e-07
6.05774e-07
-1.9062e-07
6.71615e-07
-1.97581e-07
7.39831e-07
-2.04779e-07
8.10486e-07
-2.1217e-07
8.83628e-07
-2.19705e-07
9.59289e-07
-2.27328e-07
1.03748e-06
-2.34975e-07
1.11818e-06
-2.42577e-07
1.20137e-06
-2.50056e-07
1.28696e-06
-2.57324e-07
1.37487e-06
-2.64289e-07
1.46497e-06
-2.7085e-07
1.55708e-06
-2.76899e-07
1.65102e-06
-2.8232e-07
1.74654e-06
-2.86995e-07
1.84335e-06
-2.90798e-07
1.94114e-06
-2.93599e-07
2.03954e-06
-2.95266e-07
2.13813e-06
-2.95663e-07
2.23647e-06
-2.94649e-07
2.33404e-06
-2.92074e-07
2.43031e-06
-2.87774e-07
2.52464e-06
-2.81559e-07
2.61637e-06
-2.73188e-07
2.7047e-06
-2.62324e-07
2.78872e-06
-2.48455e-07
2.86729e-06
-2.30707e-07
2.93896e-06
-2.0756e-07
3.002e-06
-1.7578e-07
3.05416e-06
-1.30287e-07
3.09805e-06
-5.65104e-08
6.56886e-08
3.13905e-06
-1.56534e-08
-5.05737e-08
-3.97538e-08
-2.10628e-08
-6.65434e-08
6.01726e-09
-9.52895e-08
3.03628e-08
-1.261e-07
5.31809e-08
-1.59013e-07
7.48258e-08
-1.94116e-07
9.53381e-08
-2.31477e-07
1.1461e-07
-2.71119e-07
1.32492e-07
-3.12952e-07
1.48859e-07
-3.56713e-07
1.63637e-07
-4.01958e-07
1.76777e-07
-4.48111e-07
1.8823e-07
-4.94554e-07
1.97925e-07
-5.40713e-07
2.05783e-07
-5.86123e-07
2.11748e-07
-6.30456e-07
2.15812e-07
-6.7352e-07
2.1803e-07
-7.15237e-07
2.18529e-07
-7.55615e-07
2.17483e-07
-7.94716e-07
2.15104e-07
-8.32632e-07
2.1162e-07
-8.69463e-07
2.07256e-07
-9.05305e-07
2.02227e-07
-9.40242e-07
1.96722e-07
-9.74341e-07
1.90907e-07
-1.00766e-06
1.84921e-07
-1.04022e-06
1.78876e-07
-1.07207e-06
1.72858e-07
-1.10322e-06
1.66933e-07
-1.13366e-06
1.61146e-07
-1.16341e-06
1.55529e-07
-1.19246e-06
1.50097e-07
-1.22081e-06
1.44858e-07
-1.24846e-06
1.3981e-07
-1.27539e-06
1.34946e-07
-1.3016e-06
1.30254e-07
-1.32709e-06
1.25718e-07
-1.35185e-06
1.21323e-07
-1.37587e-06
1.17051e-07
-1.39914e-06
1.12885e-07
-1.42166e-06
1.08807e-07
-1.44342e-06
1.04801e-07
-1.46441e-06
1.00851e-07
-1.48462e-06
9.69427e-08
-1.50405e-06
9.30636e-08
-1.52268e-06
8.92018e-08
-1.5405e-06
8.53472e-08
-1.55751e-06
8.14908e-08
-1.57368e-06
7.76251e-08
-1.58902e-06
7.37439e-08
-1.60351e-06
6.98421e-08
-1.61713e-06
6.59157e-08
-1.62988e-06
6.19618e-08
-1.64174e-06
5.79786e-08
-1.65271e-06
5.39649e-08
-1.66277e-06
4.99205e-08
-1.67192e-06
4.5846e-08
-1.68015e-06
4.17424e-08
-1.68744e-06
3.76116e-08
-1.6938e-06
3.34558e-08
-1.69922e-06
2.92782e-08
-1.7037e-06
2.50823e-08
-1.70722e-06
2.08722e-08
-1.7098e-06
1.66528e-08
-1.71144e-06
1.24297e-08
-1.71212e-06
8.20907e-09
-1.71185e-06
3.99711e-09
-1.71062e-06
-2.00477e-10
-1.70842e-06
-4.37941e-09
-1.70525e-06
-8.53966e-09
-1.70109e-06
-1.26835e-08
-1.69594e-06
-1.68131e-08
-1.68981e-06
-2.09277e-08
-1.68269e-06
-2.50251e-08
-1.6746e-06
-2.91019e-08
-1.66553e-06
-3.31543e-08
-1.65548e-06
-3.71781e-08
-1.64448e-06
-4.11692e-08
-1.63252e-06
-4.51233e-08
-1.61962e-06
-4.90359e-08
-1.60578e-06
-5.2903e-08
-1.59102e-06
-5.67202e-08
-1.57535e-06
-6.04835e-08
-1.55878e-06
-6.41891e-08
-1.54133e-06
-6.78328e-08
-1.523e-06
-7.14112e-08
-1.50383e-06
-7.49205e-08
-1.48381e-06
-7.83573e-08
-1.46298e-06
-8.17183e-08
-1.44135e-06
-8.50002e-08
-1.41894e-06
-8.82001e-08
-1.39577e-06
-9.1315e-08
-1.37186e-06
-9.43421e-08
-1.34723e-06
-9.72788e-08
-1.3219e-06
-1.00123e-07
-1.2959e-06
-1.02872e-07
-1.26924e-06
-1.05524e-07
-1.24196e-06
-1.08077e-07
-1.21408e-06
-1.10531e-07
-1.18561e-06
-1.12883e-07