/*--------------------------------*- C++ -*----------------------------------*\
| =========                 |                                                 |
| \\      /  F ield         | OpenFOAM: The Open Source CFD Toolbox           |
|  \\    /   O peration     | Version:  2412                                  |
|   \\  /    A nd           | Website:  www.openfoam.com                      |
|    \\/     M anipulation  |                                                 |
\*---------------------------------------------------------------------------*/
FoamFile
{
    version     2.0;
    format      ascii;
    arch        "LSB;label=32;scalar=64";
    class       volVectorField;
    location    "0.09";
    object      U;
}
// * * * * * * * * * * * * * * * * * * * * * * * * * * * * * * * * * * * * * //

dimensions      [0 1 -1 0 0 0 0];

internalField   nonuniform List<vector> 
12225
(
(0.377183 -0.200896 0)
(0.543962 -0.051927 0)
(0.711047 -0.0340147 0)
(0.893978 -0.0304769 0)
(1.05911 -0.0297473 0)
(1.20885 -0.0284529 0)
(1.34616 -0.0265188 0)
(1.47047 -0.0245763 0)
(1.58221 -0.0227674 0)
(1.68268 -0.0210757 0)
(1.77305 -0.0194987 0)
(1.85427 -0.0180288 0)
(1.92718 -0.0166459 0)
(1.99247 -0.0153106 0)
(2.05051 -0.0140062 0)
(2.10226 -0.0125981 0)
(2.14415 -0.010642 0)
(2.19319 -0.0135571 0)
(0.933503 -0.0317783 0)
(1.0567 -0.0587101 0)
(1.23664 -0.0689002 0)
(1.42155 -0.0644846 0)
(1.58552 -0.0618126 0)
(1.73442 -0.0589665 0)
(1.87131 -0.0555646 0)
(1.99602 -0.0521777 0)
(2.10903 -0.0489363 0)
(2.21137 -0.0458483 0)
(2.30402 -0.0429286 0)
(2.38783 -0.0401643 0)
(2.46354 -0.0375162 0)
(2.53178 -0.0349113 0)
(2.59298 -0.032304 0)
(2.64754 -0.029294 0)
(2.69506 -0.0266307 0)
(2.73736 -0.0174961 0)
(1.39962 -0.0846818 0)
(1.49179 -0.105677 0)
(1.65465 -0.107237 0)
(1.82259 -0.10194 0)
(1.97267 -0.0979881 0)
(2.11037 -0.0936506 0)
(2.23774 -0.0887389 0)
(2.35448 -0.0837962 0)
(2.46093 -0.0789955 0)
(2.55785 -0.0743836 0)
(2.64602 -0.0699872 0)
(2.72611 -0.0657893 0)
(2.79874 -0.0617346 0)
(2.86444 -0.057725 0)
(2.92363 -0.0536493 0)
(2.97656 -0.0491388 0)
(3.02338 -0.0442908 0)
(3.06325 -0.0355763 0)
(1.89741 -0.115425 0)
(1.94623 -0.143308 0)
(2.0752 -0.144982 0)
(2.21747 -0.140764 0)
(2.34797 -0.135776 0)
(2.46972 -0.130042 0)
(2.58351 -0.123692 0)
(2.68865 -0.117205 0)
(2.78522 -0.11082 0)
(2.8737 -0.104638 0)
(2.95459 -0.0987032 0)
(3.02839 -0.0930007 0)
(3.09557 -0.0874641 0)
(3.15656 -0.0819741 0)
(3.21172 -0.0763706 0)
(3.2612 -0.0702759 0)
(3.3055 -0.0634811 0)
(3.34292 -0.0530744 0)
(2.43108 -0.12583 0)
(2.4405 -0.169891 0)
(2.5288 -0.17741 0)
(2.64002 -0.17617 0)
(2.7468 -0.171227 0)
(2.84901 -0.164727 0)
(2.94615 -0.157373 0)
(3.03699 -0.149674 0)
(3.12123 -0.141961 0)
(3.19902 -0.134408 0)
(3.27059 -0.127089 0)
(3.33623 -0.120001 0)
(3.39627 -0.113078 0)
(3.45099 -0.106189 0)
(3.50069 -0.0991445 0)
(3.54548 -0.0915686 0)
(3.58613 -0.0830732 0)
(3.62045 -0.0714068 0)
(2.99683 -0.123684 0)
(2.97697 -0.185369 0)
(3.02469 -0.201458 0)
(3.10202 -0.20495 0)
(3.18209 -0.20157 0)
(3.26196 -0.195252 0)
(3.33993 -0.187549 0)
(3.41421 -0.179158 0)
(3.48405 -0.170539 0)
(3.54923 -0.161958 0)
(3.60973 -0.15354 0)
(3.66562 -0.145307 0)
(3.71704 -0.137205 0)
(3.76416 -0.129107 0)
(3.80719 -0.120813 0)
(3.84619 -0.111975 0)
(3.88212 -0.102159 0)
(3.91235 -0.0897655 0)
(3.58832 -0.114508 0)
(3.55089 -0.190583 0)
(3.5632 -0.215891 0)
(3.60678 -0.225314 0)
(3.65873 -0.225002 0)
(3.71442 -0.219953 0)
(3.77139 -0.212678 0)
(3.82733 -0.20422 0)
(3.88107 -0.19521 0)
(3.93206 -0.186032 0)
(3.98 -0.176878 0)
(4.02474 -0.167814 0)
(4.06626 -0.15881 0)
(4.10459 -0.149758 0)
(4.13985 -0.140474 0)
(4.17205 -0.130658 0)
(4.20224 -0.119918 0)
(4.2273 -0.107192 0)
(4.1988 -0.101767 0)
(4.15397 -0.187075 0)
(4.13918 -0.220704 0)
(4.15217 -0.236306 0)
(4.17667 -0.240134 0)
(4.20776 -0.237386 0)
(4.2428 -0.231354 0)
(4.27931 -0.223509 0)
(4.3158 -0.214684 0)
(4.35142 -0.205399 0)
(4.38564 -0.195933 0)
(4.41812 -0.186409 0)
(4.44867 -0.176839 0)
(4.4772 -0.167147 0)
(4.50374 -0.157183 0)
(4.52823 -0.146715 0)
(4.55174 -0.135439 0)
(4.57063 -0.122693 0)
(4.82185 -0.0878093 0)
(4.77662 -0.176875 0)
(4.74389 -0.216841 0)
(4.73189 -0.237824 0)
(4.73177 -0.246119 0)
(4.73954 -0.246398 0)
(4.75302 -0.242321 0)
(4.76996 -0.235739 0)
(4.78876 -0.227686 0)
(4.80841 -0.218812 0)
(4.82824 -0.209496 0)
(4.84773 -0.199928 0)
(4.86658 -0.190173 0)
(4.88457 -0.180201 0)
(4.90165 -0.169911 0)
(4.91769 -0.159145 0)
(4.93371 -0.147707 0)
(4.94559 -0.135224 0)
(5.45146 -0.0741095 0)
(5.4095 -0.162009 0)
(5.36681 -0.205825 0)
(5.33652 -0.23064 0)
(5.31634 -0.242892 0)
(5.30382 -0.246407 0)
(5.29757 -0.244717 0)
(5.29597 -0.239896 0)
(5.29762 -0.233121 0)
(5.3015 -0.225145 0)
(5.30688 -0.216433 0)
(5.3132 -0.207247 0)
(5.32004 -0.197707 0)
(5.32711 -0.187838 0)
(5.33431 -0.177597 0)
(5.3414 -0.166899 0)
(5.34938 -0.155657 0)
(5.35363 -0.143697 0)
(6.08167 -0.0613948 0)
(6.04411 -0.14417 0)
(5.99713 -0.189315 0)
(5.95492 -0.216154 0)
(5.92004 -0.231236 0)
(5.89153 -0.237609 0)
(5.86879 -0.238324 0)
(5.85096 -0.235474 0)
(5.83706 -0.230292 0)
(5.82629 -0.223576 0)
(5.81798 -0.215846 0)
(5.81158 -0.207419 0)
(5.80668 -0.198469 0)
(5.80296 -0.189072 0)
(5.80024 -0.179245 0)
(5.79826 -0.168967 0)
(5.79798 -0.158249 0)
(5.7943 -0.147054 0)
(6.65461 -0.0506029 0)
(6.62055 -0.126195 0)
(6.57304 -0.170567 0)
(6.52476 -0.197747 0)
(6.48112 -0.2142 0)
(6.44229 -0.222453 0)
(6.40812 -0.225001 0)
(6.37838 -0.223817 0)
(6.35259 -0.220118 0)
(6.33022 -0.214686 0)
(6.31077 -0.20805 0)
(6.2938 -0.200552 0)
(6.27896 -0.192402 0)
(6.26594 -0.183713 0)
(6.25458 -0.174545 0)
(6.24457 -0.164931 0)
(6.23685 -0.15492 0)
(6.22598 -0.144677 0)
(7.20973 -0.0406553 0)
(7.18016 -0.107381 0)
(7.13446 -0.149588 0)
(7.08341 -0.176112 0)
(7.03443 -0.192943 0)
(6.98879 -0.202314 0)
(6.94657 -0.206188 0)
(6.90794 -0.206333 0)
(6.87286 -0.203927 0)
(6.84111 -0.199709 0)
(6.81239 -0.194184 0)
(6.78643 -0.187696 0)
(6.76294 -0.180468 0)
(6.74171 -0.172642 0)
(6.72258 -0.164306 0)
(6.70525 -0.155532 0)
(6.69064 -0.146383 0)
(6.67315 -0.137237 0)
(7.81811 -0.0310661 0)
(7.79338 -0.0861153 0)
(7.75173 -0.123824 0)
(7.70082 -0.148273 0)
(7.64925 -0.164303 0)
(7.59952 -0.173927 0)
(7.55196 -0.178572 0)
(7.50694 -0.179682 0)
(7.46476 -0.17834 0)
(7.4255 -0.175236 0)
(7.38906 -0.170828 0)
(7.35534 -0.165437 0)
(7.3242 -0.159286 0)
(7.29549 -0.152524 0)
(7.26914 -0.145257 0)
(7.24488 -0.137579 0)
(7.22356 -0.129576 0)
(7.19971 -0.121714 0)
(8.45855 -0.0222919 0)
(8.43893 -0.0637535 0)
(8.40342 -0.0942294 0)
(8.35609 -0.11464 0)
(8.30534 -0.128275 0)
(8.25481 -0.136875 0)
(8.20524 -0.14141 0)
(8.15711 -0.142879 0)
(8.11097 -0.142159 0)
(8.06715 -0.139851 0)
(8.02575 -0.136355 0)
(7.98677 -0.131952 0)
(7.95021 -0.126848 0)
(7.91602 -0.121192 0)
(7.88418 -0.115094 0)
(7.85449 -0.108654 0)
(7.82775 -0.101966 0)
(7.79887 -0.0955161 0)
(9.08866 -0.0143672 0)
(9.07382 -0.0417243 0)
(9.04561 -0.0628249 0)
(9.00496 -0.0771619 0)
(8.95896 -0.0865812 0)
(8.91167 -0.092453 0)
(8.86418 -0.0954686 0)
(8.81704 -0.0962389 0)
(8.77094 -0.0953576 0)
(8.72641 -0.093271 0)
(8.68374 -0.0902758 0)
(8.64307 -0.0865811 0)
(8.60447 -0.0823463 0)
(8.56797 -0.0776946 0)
(8.53361 -0.0727263 0)
(8.50125 -0.0675358 0)
(8.47162 -0.0621911 0)
(8.44039 -0.0572 0)
(9.63295 -0.00706914 0)
(9.6217 -0.020695 0)
(9.59987 -0.0313775 0)
(9.56659 -0.038353 0)
(9.52747 -0.0423827 0)
(9.48644 -0.044298 0)
(9.44472 -0.0445492 0)
(9.40275 -0.0434749 0)
(9.36111 -0.0414177 0)
(9.32039 -0.0386606 0)
(9.28094 -0.0353987 0)
(9.24297 -0.0317688 0)
(9.20661 -0.0278779 0)
(9.17192 -0.0238166 0)
(9.13901 -0.0196575 0)
(9.10776 -0.0154807 0)
(9.07876 -0.0113005 0)
(9.04899 -0.00761136 0)
(9.96404 0.00011181 0)
(9.95459 0.000176383 0)
(9.93649 0.000644968 0)
(9.90812 0.00190021 0)
(9.87423 0.0038543 0)
(9.83859 0.00631599 0)
(9.80247 0.00918102 0)
(9.76622 0.0123779 0)
(9.73031 0.0158227 0)
(9.69521 0.0194348 0)
(9.66124 0.0231519 0)
(9.62857 0.0269244 0)
(9.59725 0.0307065 0)
(9.56733 0.0344498 0)
(9.53883 0.0381122 0)
(9.51171 0.0416294 0)
(9.48614 0.0450256 0)
(9.46111 0.0478843 0)
(9.87499 0.00747811 0)
(9.86688 0.0218122 0)
(9.84987 0.0342353 0)
(9.8225 0.0444447 0)
(9.7896 0.0528647 0)
(9.75499 0.0599777 0)
(9.71995 0.0660808 0)
(9.68486 0.0713891 0)
(9.65018 0.0760995 0)
(9.61641 0.0803708 0)
(9.58387 0.0843108 0)
(9.5527 0.0879874 0)
(9.52296 0.0914428 0)
(9.49468 0.0946998 0)
(9.46782 0.0977666 0)
(9.44241 0.100624 0)
(9.41817 0.103309 0)
(9.39614 0.10554 0)
(9.28437 0.0159228 0)
(9.27065 0.0462107 0)
(9.24579 0.0712043 0)
(9.20981 0.0904355 0)
(9.16898 0.105264 0)
(9.12727 0.116892 0)
(9.08578 0.126001 0)
(9.04491 0.133133 0)
(9.0052 0.138801 0)
(8.96714 0.14341 0)
(8.931 0.147237 0)
(8.89686 0.150472 0)
(8.86472 0.153254 0)
(8.83455 0.155683 0)
(8.80628 0.157829 0)
(8.77988 0.15974 0)
(8.75485 0.161465 0)
(8.7332 0.162858 0)
(8.47101 0.0260942 0)
(8.45236 0.0738198 0)
(8.4197 0.110367 0)
(8.37626 0.136909 0)
(8.32997 0.156565 0)
(8.28455 0.171183 0)
(8.24071 0.181795 0)
(8.19878 0.189359 0)
(8.15923 0.194736 0)
(8.12234 0.198551 0)
(8.08818 0.20123 0)
(8.05665 0.20308 0)
(8.02766 0.204331 0)
(8.00105 0.205153 0)
(7.97665 0.205671 0)
(7.95436 0.205982 0)
(7.93367 0.206145 0)
(7.91659 0.206116 0)
(7.51239 0.0385268 0)
(7.4866 0.104514 0)
(7.44645 0.150244 0)
(7.39954 0.181379 0)
(7.35395 0.203364 0)
(7.31182 0.218496 0)
(7.27316 0.228303 0)
(7.23804 0.234323 0)
(7.20658 0.23777 0)
(7.17864 0.239445 0)
(7.15398 0.239887 0)
(7.1323 0.239489 0)
(7.1133 0.238534 0)
(7.0967 0.237225 0)
(7.08224 0.235704 0)
(7.06973 0.23408 0)
(7.05864 0.232407 0)
(7.05072 0.230707 0)
(6.48931 0.0542278 0)
(6.45655 0.13691 0)
(6.41295 0.186964 0)
(6.37063 0.218572 0)
(6.33488 0.239413 0)
(6.30526 0.252065 0)
(6.28104 0.258771 0)
(6.26182 0.26161 0)
(6.247 0.261971 0)
(6.23593 0.260708 0)
(6.22798 0.258401 0)
(6.22264 0.255462 0)
(6.21947 0.252177 0)
(6.21809 0.248736 0)
(6.21819 0.245267 0)
(6.21952 0.24186 0)
(6.22165 0.23856 0)
(6.22597 0.235422 0)
(5.45712 0.0733917 0)
(5.41829 0.166496 0)
(5.37868 0.214127 0)
(5.35276 0.241956 0)
(5.33863 0.258348 0)
(5.33246 0.266107 0)
(5.33269 0.268285 0)
(5.33807 0.267209 0)
(5.34721 0.264196 0)
(5.35902 0.26003 0)
(5.37274 0.255242 0)
(5.38777 0.250186 0)
(5.40368 0.245087 0)
(5.42012 0.240083 0)
(5.43684 0.235261 0)
(5.45366 0.230672 0)
(5.47027 0.226338 0)
(5.48778 0.222323 0)
(4.45282 0.0947788 0)
(4.41206 0.187415 0)
(4.39048 0.225942 0)
(4.3966 0.246405 0)
(4.41648 0.255931 0)
(4.44334 0.257835 0)
(4.47526 0.255588 0)
(4.51034 0.251203 0)
(4.54689 0.245661 0)
(4.58387 0.239557 0)
(4.62064 0.233287 0)
(4.65679 0.227094 0)
(4.69204 0.221118 0)
(4.72621 0.215435 0)
(4.7592 0.210083 0)
(4.79098 0.205076 0)
(4.82138 0.200418 0)
(4.85136 0.196171 0)
(3.50293 0.114453 0)
(3.47301 0.192924 0)
(3.48913 0.217653 0)
(3.54119 0.228894 0)
(3.6026 0.231471 0)
(3.66649 0.228838 0)
(3.73177 0.223834 0)
(3.79673 0.217726 0)
(3.85997 0.211117 0)
(3.92084 0.204404 0)
(3.97908 0.197841 0)
(4.03458 0.191571 0)
(4.08729 0.185661 0)
(4.13728 0.180141 0)
(4.18464 0.175013 0)
(4.22951 0.170267 0)
(4.27189 0.165891 0)
(4.31261 0.161957 0)
(2.62982 0.122983 0)
(2.63207 0.176391 0)
(2.70178 0.187973 0)
(2.8047 0.19109 0)
(2.90734 0.189118 0)
(3.00604 0.184601 0)
(3.10161 0.178928 0)
(3.19305 0.172745 0)
(3.27953 0.166452 0)
(3.36092 0.160304 0)
(3.43736 0.154446 0)
(3.50906 0.148951 0)
(3.57628 0.143846 0)
(3.63929 0.139129 0)
(3.69839 0.134785 0)
(3.75388 0.130793 0)
(3.80592 0.127129 0)
(3.85528 0.123887 0)
(1.85178 0.104826 0)
(1.90638 0.13444 0)
(2.03033 0.1419 0)
(2.17813 0.140518 0)
(2.31587 0.137042 0)
(2.44343 0.132927 0)
(2.56367 0.128109 0)
(2.6765 0.122997 0)
(2.78157 0.117951 0)
(2.87918 0.113124 0)
(2.96985 0.108589 0)
(3.05412 0.104382 0)
(3.13248 0.100508 0)
(3.20543 0.0969531 0)
(3.27341 0.0936973 0)
(3.33689 0.0907168 0)
(3.39616 0.0879762 0)
(3.45197 0.0855827 0)
(1.17533 0.0416901 0)
(1.28238 0.0661065 0)
(1.43869 0.0889884 0)
(1.61659 0.0891793 0)
(1.78035 0.0862331 0)
(1.92916 0.0833348 0)
(2.06743 0.0798378 0)
(2.19585 0.0761219 0)
(2.31434 0.0725324 0)
(2.42346 0.0691538 0)
(2.52409 0.0660112 0)
(2.61702 0.0631203 0)
(2.70296 0.0604776 0)
(2.78256 0.0580668 0)
(2.85642 0.0558676 0)
(2.9251 0.053863 0)
(2.989 0.051991 0)
(3.04886 0.0503512 0)
(0.469484 0.226529 0)
(0.642365 0.0691634 0)
(0.788941 0.0480265 0)
(0.972459 0.0444113 0)
(1.14913 0.0429734 0)
(1.30917 0.0416808 0)
(1.45689 0.0396482 0)
(1.59327 0.037333 0)
(1.71811 0.035115 0)
(1.83216 0.033067 0)
(1.9366 0.0311847 0)
(2.03246 0.0294661 0)
(2.1206 0.0279045 0)
(2.20182 0.0264872 0)
(2.2768 0.0251981 0)
(2.3462 0.0240301 0)
(2.41051 0.0229301 0)
(2.47006 0.0219769 0)
(0.0131644 -0.0236773 -2.72167e-20)
(0.0411664 -0.0426214 2.62845e-20)
(0.0703247 -0.0458237 0)
(0.0949267 -0.0399651 0)
(0.111134 -0.0291602 0)
(0.118449 -0.0160838 -2.43785e-20)
(0.116183 -0.00279846 0)
(0.105499 0.0088345 0)
(0.0882961 0.0176844 0)
(0.0661105 0.0235492 0)
(0.0401399 0.027061 2.41415e-20)
(0.0110645 0.0292762 0)
(-0.0207526 0.0313031 0)
(-0.0554955 0.0339628 0)
(-0.0936776 0.0375758 0)
(-0.135535 0.0419351 2.22676e-20)
(-0.181114 0.04659 0)
(-0.230212 0.051096 0)
(-0.282419 0.0551088 0)
(-0.337185 0.0583962 0)
(-0.393885 0.0608298 0)
(-0.451877 0.0623741 0)
(-0.510519 0.0630718 0)
(-0.569195 0.06302 1.84345e-20)
(-0.627462 0.0623497 -1.80772e-20)
(-0.684918 0.0611697 1.77477e-20)
(-0.741228 0.059585 1.7444e-20)
(-0.796139 0.0577011 0)
(-0.849469 0.0556146 0)
(-0.901101 0.0534089 -1.66649e-20)
(-0.950971 0.051153 -1.64414e-20)
(-0.999057 0.048901 0)
(-1.04537 0.0466932 0)
(-1.08996 0.0445578 -1.58501e-20)
(-1.13287 0.0425127 0)
(-1.17417 0.0405678 0)
(-1.21393 0.0387265 1.53426e-20)
(-1.25223 0.0369876 0)
(-1.28913 0.0353468 1.50336e-20)
(-1.3247 0.0337972 2.97701e-20)
(-1.35901 0.0323312 0)
(-1.3921 0.0309403 0)
(-1.42402 0.0296158 0)
(-1.45481 0.0283496 0)
(-1.48452 0.0271338 0)
(-1.51316 0.0259612 2.80699e-20)
(-1.54076 0.0248255 2.7791e-20)
(-1.56734 0.0237208 2.75113e-20)
(-1.59291 0.0226421 0)
(-1.61747 0.0215851 -2.69472e-20)
(-1.64103 0.0205461 0)
(-1.6636 0.0195219 2.63731e-20)
(-1.68517 0.01851 2.6081e-20)
(-1.70573 0.0175082 0)
(-1.72529 0.0165144 0)
(-1.74384 0.0155272 0)
(-1.76138 0.0145451 2.48706e-20)
(-1.77788 0.0135666 0)
(-1.79334 0.0125901 0)
(-1.80776 0.011614 0)
(-1.82112 0.0106361 0)
(-1.83341 0.00965393 0)
(-1.84461 0.00866451 0)
(-1.85471 0.00766453 0)
(-1.8637 0.00665014 0)
(-1.87154 0.00561751 -2.18164e-20)
(-1.87822 0.00456452 0)
(-1.8837 0.00349499 0)
(-1.88795 0.00242599 2.06792e-20)
(-1.89092 0.00139085 2.02866e-20)
(-1.89255 0.000427861 0)
(-1.89298 -0.00043019 -1.94738e-20)
(-1.89242 -0.00118476 1.90546e-20)
(-1.89084 -0.00189387 0)
(-1.88827 -0.00257697 -1.81919e-20)
(-1.88473 -0.00324209 0)
(-1.88022 -0.00389227 0)
(-1.87475 -0.0045286 1.68372e-20)
(-1.86833 -0.0051513 0)
(-1.86096 -0.00576024 -1.58944e-20)
(-1.85265 -0.00635513 0)
(-1.84342 -0.0069356 1.49207e-20)
(-1.83326 -0.00750128 1.44226e-20)
(-1.8222 -0.00805183 1.39172e-20)
(-1.81024 -0.00858688 2.68095e-20)
(-1.79739 -0.00910612 -2.57707e-20)
(-1.78367 -0.00960925 0)
(-1.7691 -0.010096 0)
(-1.75368 -0.0105661 0)
(-1.73744 -0.0110194 -2.14864e-20)
(-1.72038 -0.0114556 -2.03855e-20)
(-1.70254 -0.0118747 1.92738e-20)
(-1.68392 -0.0122763 0)
(-1.66455 -0.0126605 -1.70203e-20)
(-1.64444 -0.0130272 -1.58798e-20)
(-1.62362 -0.0133762 -1.4731e-20)
(-1.60211 -0.0137077 0)
(-1.57992 -0.0140216 0)
(-1.55708 -0.0143181 0)
(-1.53361 -0.0145972 -1.00666e-20)
(-1.50953 -0.0148592 0)
(-1.48487 -0.0151042 0)
(-1.45965 -0.0153326 6.51613e-21)
(-1.43389 -0.0155447 0)
(-1.40761 -0.015741 0)
(-1.38083 -0.015922 2.9433e-21)
(-1.35359 -0.0160881 0)
(-1.32589 -0.0162402 0)
(-1.29777 -0.016379 6.31845e-22)
(-1.26923 -0.0165054 1.82076e-21)
(-1.2403 -0.0166202 0)
(-1.211 -0.0167246 -4.19048e-21)
(-1.18134 -0.0168197 0)
(-1.15134 -0.0169069 6.54547e-21)
(-1.12101 -0.0169876 0)
(-1.09036 -0.0170633 8.88176e-21)
(-1.0594 -0.0171357 1.00419e-20)
(-1.02813 -0.0172065 0)
(-0.996556 -0.0172776 0)
(-0.964677 -0.017351 0)
(-0.932487 -0.017429 0)
(-0.899978 -0.0175137 0)
(-0.867137 -0.0176075 0)
(-0.833947 -0.0177128 0)
(-0.800385 -0.017832 1.91104e-20)
(-0.766425 -0.0179678 -2.02193e-20)
(-0.732035 -0.0181229 0)
(-0.697176 -0.0182998 0)
(-0.661806 -0.0185012 0)
(-0.625875 -0.0187297 0)
(-0.589329 -0.0189881 -5.14361e-20)
(-0.552106 -0.0192789 0)
(-0.514141 -0.0196043 5.58294e-20)
(-0.475361 -0.0199671 -5.80348e-20)
(-0.435688 -0.0203693 0)
(-0.395039 -0.0208125 0)
(-0.353326 -0.0212988 0)
(-0.310457 -0.0218297 6.69864e-20)
(-0.266336 -0.0224052 6.92739e-20)
(-0.220864 -0.0230254 0)
(-0.173939 -0.0236865 7.39332e-20)
(-0.125454 -0.0243838 7.63128e-20)
(-0.0752942 -0.0251114 -7.87316e-20)
(-0.0233737 -0.0258312 0)
(0.0303657 -0.026472 0)
(0.0861158 -0.0270797 -8.40495e-20)
(0.143973 -0.0277202 0)
(0.204072 -0.0283982 0)
(0.266538 -0.0291041 0)
(0.331489 -0.029828 0)
(0.399027 -0.0305609 8.90617e-20)
(0.46924 -0.0312942 8.98954e-20)
(0.542199 -0.0320195 0)
(0.617956 -0.032728 9.13616e-20)
(0.696544 -0.0334105 0)
(0.777974 -0.0340577 0)
(0.862228 -0.0346594 9.29861e-20)
(0.949263 -0.0352055 0)
(1.039 -0.0356851 9.36292e-20)
(1.13134 -0.0360874 0)
(1.22613 -0.0364012 0)
(1.32318 -0.0366152 9.38511e-20)
(1.42226 -0.0367183 0)
(1.52311 -0.0366992 9.34761e-20)
(1.6254 -0.0365473 0)
(1.72876 -0.0362519 0)
(1.83278 -0.0358028 0)
(1.93697 -0.0351898 -9.15103e-20)
(2.04083 -0.0344024 0)
(2.14375 -0.0334292 9.00187e-20)
(2.24509 -0.032256 0)
(2.3441 -0.0308633 0)
(2.43993 -0.0292209 0)
(2.53153 -0.0272772 0)
(2.61764 -0.0249365 0)
(2.6962 -0.0220063 0)
(2.76479 -0.0179005 0)
(2.81453 -0.0114453 -1.69726e-19)
(2.84687 0.00670792 0)
(2.75107 0.0320738 0)
(0.0173192 -0.0908926 7.95595e-20)
(0.0375722 -0.0977434 -7.38861e-20)
(0.0452777 -0.0744733 0)
(0.0447989 -0.0472089 4.32314e-20)
(0.0376561 -0.0200525 0)
(0.0248272 0.00568473 2.03783e-20)
(0.00762678 0.0289395 -4.00793e-20)
(-0.0140594 0.0489049 -3.93974e-20)
(-0.040518 0.0652832 0)
(-0.0718302 0.0785133 -3.77036e-20)
(-0.107951 0.089541 -1.84623e-20)
(-0.148734 0.0994047 0)
(-0.193853 0.108883 0)
(-0.24282 0.118336 0)
(-0.295024 0.127685 0)
(-0.349767 0.136533 -1.62519e-20)
(-0.406325 0.144387 0)
(-0.463975 0.150819 3.07515e-20)
(-0.522029 0.155552 0)
(-0.579863 0.158468 0)
(-0.636939 0.159592 -2.86114e-20)
(-0.692819 0.159058 0)
(-0.747171 0.157081 2.74168e-20)
(-0.799756 0.153919 -1.34796e-20)
(-0.850421 0.149833 1.32331e-20)
(-0.899085 0.145061 -1.30057e-20)
(-0.945733 0.139817 -1.27957e-20)
(-0.990396 0.13429 0)
(-1.03314 0.128637 0)
(-1.07407 0.122986 1.22518e-20)
(-1.11326 0.117431 -1.20244e-20)
(-1.15083 0.112043 0)
(-1.18689 0.106868 0)
(-1.22152 0.101932 1.16699e-20)
(-1.25482 0.0972474 0)
(-1.28686 0.0928152 0)
(-1.31773 0.0886273 -1.12991e-20)
(-1.34747 0.0846703 0)
(-1.37615 0.080927 1.0995e-20)
(-1.4038 0.0773786 -2.19195e-20)
(-1.43046 0.0740053 0)
(-1.45617 0.0707879 0)
(-1.48095 0.0677076 -4.2404e-20)
(-1.50482 0.0647471 -4.19836e-20)
(-1.52778 0.0618906 -4.15649e-20)
(-1.54986 0.0591237 2.05068e-20)
(-1.57106 0.0564338 -2.04285e-20)
(-1.59139 0.0538098 -6.0524e-20)
(-1.61084 0.0512422 3.98853e-20)
(-1.62941 0.0487229 1.97867e-20)
(-1.64711 0.046245 0)
(-1.66393 0.0438028 -1.93488e-20)
(-1.67986 0.0413917 1.90297e-20)
(-1.6949 0.0390079 0)
(-1.70904 0.0366486 0)
(-1.72228 0.0343115 0)
(-1.73461 0.0319946 -1.82011e-20)
(-1.74603 0.0296968 0)
(-1.75652 0.0274168 3.5376e-20)
(-1.76608 0.0251538 0)
(-1.7747 0.0229069 3.43851e-20)
(-1.78239 0.0206752 0)
(-1.78914 0.0184575 -3.33575e-20)
(-1.79494 0.0162528 0)
(-1.7998 0.0140599 3.22914e-20)
(-1.80373 0.0118778 -1.58713e-20)
(-1.80673 0.00970518 0)
(-1.80885 0.0075432 -3.06174e-20)
(-1.81011 0.00540178 -1.50086e-20)
(-1.81058 0.00330899 -1.47101e-20)
(-1.81033 0.00130501 0)
(-1.80929 -0.000592737 -1.41331e-20)
(-1.80731 -0.00239523 -1.3775e-20)
(-1.80438 -0.00413556 0)
(-1.80051 -0.00582779 1.3126e-20)
(-1.79568 -0.00747931 -2.56589e-20)
(-1.7899 -0.00909289 0)
(-1.78317 -0.0106693 -1.21138e-20)
(-1.77549 -0.0122082 0)
(-1.76688 -0.0137089 3.43429e-20)
(-1.75732 -0.0151705 0)
(-1.74685 -0.0165922 -3.21997e-20)
(-1.73546 -0.0179729 -1.03283e-20)
(-1.72316 -0.0193118 1.00863e-20)
(-1.70997 -0.0206082 1.94351e-20)
(-1.6959 -0.0218612 -1.86889e-20)
(-1.68095 -0.0230704 0)
(-1.66515 -0.024235 0)
(-1.64851 -0.0253546 0)
(-1.63105 -0.0264289 4.62098e-20)
(-1.61277 -0.0274574 1.44975e-20)
(-1.5937 -0.02844 -1.36958e-20)
(-1.57386 -0.0293763 0)
(-1.55326 -0.0302664 -1.24473e-20)
(-1.53192 -0.0311101 1.1258e-20)
(-1.50986 -0.0319076 1.04359e-20)
(-1.48711 -0.0326589 0)
(-1.46367 -0.0333644 0)
(-1.43959 -0.0340244 0)
(-1.41486 -0.0346393 7.11221e-21)
(-1.38953 -0.0352098 0)
(-1.36361 -0.0357365 -1.13025e-20)
(-1.33712 -0.0362202 -1.4223e-20)
(-1.31008 -0.0366619 7.95054e-21)
(-1.28252 -0.0370626 0)
(-1.25446 -0.0374236 2.5223e-21)
(-1.22592 -0.0377464 0)
(-1.19693 -0.0380326 1.24298e-21)
(-1.1675 -0.038284 -1.49456e-23)
(-1.13765 -0.0385026 8.18284e-22)
(-1.1074 -0.0386905 0)
(-1.07678 -0.0388503 8.36706e-21)
(-1.0458 -0.0389844 -7.07685e-21)
(-1.01446 -0.0390959 -4.5967e-21)
(-0.982795 -0.0391878 0)
(-0.950804 -0.0392634 -6.23515e-21)
(-0.918499 -0.0393265 -2.06741e-20)
(-0.885885 -0.0393806 0)
(-0.852965 -0.03943 -1.68536e-20)
(-0.81974 -0.0394789 -1.84552e-20)
(-0.786205 -0.0395318 -2.00485e-20)
(-0.752352 -0.0395934 0)
(-0.718171 -0.0396686 0)
(-0.683645 -0.0397623 0)
(-0.648754 -0.0398798 1.29308e-20)
(-0.61347 -0.0400264 1.41903e-20)
(-0.577765 -0.0402074 0)
(-0.5416 -0.0404282 3.09919e-20)
(-0.504934 -0.040694 3.25322e-20)
(-0.46772 -0.0410102 0)
(-0.429903 -0.0413822 3.61062e-20)
(-0.391424 -0.0418147 7.42799e-20)
(-0.352217 -0.0423124 -3.9189e-20)
(-0.312211 -0.04288 -3.96939e-20)
(-0.271328 -0.0435216 0)
(-0.229486 -0.0442401 0)
(-0.186597 -0.0450387 0)
(-0.142568 -0.0459194 -4.6984e-20)
(-0.097302 -0.0468818 4.74346e-20)
(-0.0506965 -0.0479261 9.9188e-20)
(-0.0026494 -0.0490514 -5.16751e-20)
(0.0469503 -0.0502555 5.1701e-20)
(0.0982206 -0.0515412 5.39811e-20)
(0.151277 -0.0529128 0)
(0.206246 -0.0543458 0)
(0.263263 -0.0558324 -5.5895e-20)
(0.322444 -0.0573943 0)
(0.383912 -0.0590396 0)
(0.447785 -0.060759 1.192e-19)
(0.514172 -0.0625384 0)
(0.583175 -0.0643624 6.08135e-20)
(0.654882 -0.066215 -6.31201e-20)
(0.729368 -0.0680789 0)
(0.80669 -0.069936 6.33958e-20)
(0.886884 -0.0717666 0)
(0.969968 -0.0735496 0)
(1.05593 -0.0752621 -6.70723e-20)
(1.14473 -0.0768799 1.33937e-19)
(1.23631 -0.0783774 -6.82861e-20)
(1.33057 -0.0797276 0)
(1.42735 -0.0809023 0)
(1.5265 -0.0818726 6.81499e-20)
(1.62779 -0.0826088 0)
(1.73097 -0.083081 6.87114e-20)
(1.83571 -0.0832589 0)
(1.94168 -0.0831127 0)
(2.04847 -0.082612 0)
(2.15563 -0.0817267 7.03205e-20)
(2.26265 -0.0804248 0)
(2.36896 -0.0786717 -7.002e-20)
(2.47394 -0.0764257 0)
(2.57687 -0.0736316 0)
(2.67696 -0.0702079 1.3754e-19)
(2.77321 -0.0660219 -1.37117e-19)
(2.86447 -0.0608278 0)
(2.94895 -0.0541594 0)
(3.02492 -0.0447635 0)
(3.08651 -0.0303641 4.14587e-19)
(3.13923 0.000106354 0)
(3.1719 0.052056 -2.84021e-19)
(0.00626513 -0.129997 -1.46083e-22)
(0.00616563 -0.101096 9.44166e-20)
(-0.00479624 -0.0586509 0)
(-0.0200101 -0.0197447 -7.74549e-20)
(-0.039121 0.0159399 0)
(-0.0616372 0.0486975 0)
(-0.0873822 0.0786803 5.03268e-23)
(-0.116357 0.105797 3.24234e-20)
(-0.148702 0.129933 3.15705e-20)
(-0.184554 0.151223 3.08554e-20)
(-0.223912 0.170071 0)
(-0.266547 0.186971 0)
(-0.311987 0.202273 -2.85252e-20)
(-0.359562 0.216053 -5.55398e-20)
(-0.408506 0.228125 5.40606e-20)
(-0.458064 0.238162 0)
(-0.507571 0.24584 5.12423e-20)
(-0.556489 0.250949 -2.49508e-20)
(-0.604418 0.25344 0)
(-0.651083 0.253421 4.74649e-20)
(-0.696322 0.251126 2.31454e-20)
(-0.740059 0.246876 -4.52791e-20)
(-0.782284 0.241035 -2.21192e-20)
(-0.823029 0.233975 0)
(-0.86235 0.226044 4.24839e-20)
(-0.900318 0.217551 4.16692e-20)
(-0.93701 0.208758 0)
(-0.972504 0.199881 4.0193e-20)
(-1.00687 0.191085 0)
(-1.04018 0.182495 3.88946e-20)
(-1.07249 0.174197 1.91687e-20)
(-1.10384 0.166246 0)
(-1.13428 0.158671 0)
(-1.16383 0.151482 0)
(-1.19254 0.144675 0)
(-1.22042 0.138232 0)
(-1.2475 0.132132 0)
(-1.27378 0.126349 3.48968e-20)
(-1.29928 0.120853 -5.17649e-20)
(-1.32401 0.115616 0)
(-1.34798 0.110608 0)
(-1.3712 0.105804 0)
(-1.39366 0.101178 8.62469e-23)
(-1.41536 0.0967059 3.26288e-20)
(-1.43632 0.0923682 6.44287e-20)
(-1.45651 0.0881463 -6.36905e-20)
(-1.47595 0.084024 -3.14377e-20)
(-1.49462 0.0799873 3.11501e-20)
(-1.51252 0.0760245 -7.49397e-23)
(-1.52964 0.0721255 3.03414e-20)
(-1.54598 0.0682819 0)
(-1.56151 0.064487 2.96057e-20)
(-1.57625 0.0607352 -6.08837e-23)
(-1.59017 0.0570225 0)
(-1.60326 0.0533455 0)
(-1.61552 0.0497021 -2.81026e-20)
(-1.62694 0.0460906 0)
(-1.63751 0.0425102 0)
(-1.64722 0.0389606 2.68998e-20)
(-1.65607 0.035442 5.30686e-20)
(-1.66404 0.0319549 -2.61534e-20)
(-1.67113 0.0285004 0)
(-1.67734 0.0250801 2.53167e-20)
(-1.68266 0.0216965 0)
(-1.68711 0.0183528 2.44507e-20)
(-1.69067 0.0150543 2.4017e-20)
(-1.69336 0.0118079 -4.71585e-20)
(-1.69519 0.00862338 -2.31459e-20)
(-1.69615 0.00551236 0)
(-1.69625 0.00248527 4.44315e-20)
(-1.69548 -0.000455054 0)
(-1.69381 -0.00332396 6.37514e-20)
(-1.69122 -0.00613847 4.15539e-20)
(-1.68769 -0.00889789 4.057e-20)
(-1.68324 -0.0116017 -3.95727e-20)
(-1.67785 -0.014249 5.77851e-20)
(-1.67153 -0.0168386 0)
(-1.66429 -0.019369 0)
(-1.65612 -0.0218388 -3.54512e-20)
(-1.64703 -0.0242461 -5.15034e-20)
(-1.63703 -0.0265895 0)
(-1.62612 -0.0288671 1.60235e-20)
(-1.61432 -0.0310776 0)
(-1.60163 -0.0332195 -4.49253e-20)
(-1.58806 -0.0352916 2.07985e-22)
(-1.57363 -0.0372926 -2.1721e-22)
(-1.55835 -0.0392217 2.66199e-20)
(-1.54222 -0.0410779 0)
(-1.52526 -0.0428605 -2.43061e-20)
(-1.5075 -0.0445688 2.51554e-22)
(-1.48893 -0.0462024 0)
(-1.46959 -0.0477609 0)
(-1.44948 -0.049244 0)
(-1.42862 -0.0506515 1.80974e-20)
(-1.40703 -0.0519836 0)
(-1.38474 -0.0532402 0)
(-1.36175 -0.0544217 0)
(-1.33809 -0.0555285 0)
(-1.31379 -0.0565613 0)
(-1.28885 -0.0575209 1.10799e-20)
(-1.26331 -0.0584082 0)
(-1.23718 -0.0592244 8.29781e-21)
(-1.21049 -0.0599707 7.06406e-21)
(-1.18325 -0.0606488 -5.83048e-21)
(-1.15549 -0.0612604 0)
(-1.12723 -0.0618076 -3.36623e-21)
(-1.0985 -0.0622927 0)
(-1.0693 -0.0627183 -9.09763e-22)
(-1.03968 -0.0630875 -3.14174e-22)
(-1.00963 -0.0634033 -3.90272e-21)
(-0.979186 -0.0636693 0)
(-0.948364 -0.0638893 -1.11804e-20)
(-0.917178 -0.0640676 -4.45866e-21)
(-0.885644 -0.0642087 0)
(-0.853775 -0.0643177 -1.442e-20)
(-0.821583 -0.0643999 -1.6799e-20)
(-0.789076 -0.064461 2.91101e-20)
(-0.756262 -0.064507 0)
(-0.723143 -0.0645443 1.22949e-20)
(-0.689721 -0.0645797 1.34614e-20)
(-0.655993 -0.0646204 4.31354e-20)
(-0.621952 -0.0646738 0)
(-0.587587 -0.0647475 0)
(-0.552885 -0.0648496 0)
(-0.517825 -0.0649882 1.84643e-20)
(-0.482384 -0.0651715 0)
(-0.446532 -0.0654082 0)
(-0.410235 -0.0657065 -2.25954e-20)
(-0.373452 -0.0660749 -2.37186e-20)
(-0.336138 -0.0665217 0)
(-0.298241 -0.0670552 0)
(-0.259703 -0.0676831 -5.41587e-20)
(-0.220461 -0.0684125 0)
(-0.180446 -0.0692508 5.86431e-20)
(-0.139582 -0.0702043 6.00694e-20)
(-0.0977887 -0.0712773 0)
(-0.0549784 -0.0724749 0)
(-0.0110601 -0.0738011 -6.67733e-20)
(0.034062 -0.0752579 -8.8305e-22)
(0.0804933 -0.0768467 -8.963e-22)
(0.128339 -0.0785681 0)
(0.177709 -0.0804233 -1.49007e-19)
(0.228722 -0.082415 0)
(0.281502 -0.08455 0)
(0.336195 -0.0868322 0)
(0.392926 -0.0892543 8.19676e-20)
(0.451809 -0.0918106 0)
(0.512955 -0.0944962 -1.68823e-19)
(0.576472 -0.097298 -8.71605e-20)
(0.642464 -0.100197 0)
(0.711025 -0.103173 -9.04967e-20)
(0.782242 -0.1062 0)
(0.856189 -0.109254 0)
(0.93292 -0.112306 -2.83387e-19)
(1.01247 -0.115325 1.91098e-19)
(1.09487 -0.118278 0)
(1.18009 -0.121129 1.9663e-19)
(1.26811 -0.123838 -1.0079e-19)
(1.35886 -0.126366 0)
(1.45225 -0.128669 0)
(1.54813 -0.130701 0)
(1.64634 -0.132417 -3.13123e-19)
(1.74667 -0.133767 0)
(1.84887 -0.134703 -1.06814e-19)
(1.95263 -0.135176 0)
(2.05761 -0.135137 0)
(2.16343 -0.134536 0)
(2.26964 -0.133324 0)
(2.37575 -0.131448 0)
(2.48122 -0.128852 0)
(2.58545 -0.125468 -2.17347e-19)
(2.68775 -0.121209 0)
(2.78736 -0.115948 -1.09959e-19)
(2.88337 -0.109484 3.28665e-19)
(2.97474 -0.101458 0)
(3.06001 -0.091224 0)
(3.13781 -0.0772982 -2.2166e-19)
(3.20481 -0.0573439 -2.25833e-19)
(3.26304 -0.0238189 2.28501e-19)
(3.30919 0.0342973 2.35653e-19)
(-0.00851356 -0.116339 -1.53573e-19)
(-0.0246038 -0.0665339 -1.34348e-19)
(-0.0469598 -0.0174104 -7.74755e-20)
(-0.0712751 0.0266787 -3.4637e-20)
(-0.0977076 0.0672291 0)
(-0.126053 0.104915 6.07311e-20)
(-0.15632 0.139895 -2.91121e-20)
(-0.188594 0.172079 0)
(-0.222937 0.201326 -2.74749e-20)
(-0.259336 0.227575 0)
(-0.297641 0.250873 5.20848e-20)
(-0.337534 0.271311 0)
(-0.378548 0.288926 2.46673e-20)
(-0.420134 0.303662 4.79797e-20)
(-0.461744 0.315391 -4.66542e-20)
(-0.502905 0.323989 0)
(-0.54326 0.329405 -4.41273e-20)
(-0.582578 0.331712 0)
(-0.620745 0.331109 0)
(-0.657734 0.327905 -4.07327e-20)
(-0.693583 0.322478 0)
(-0.728364 0.31524 -1.1605e-22)
(-0.762167 0.306602 0)
(-0.795081 0.296949 0)
(-0.827186 0.286623 9.0506e-23)
(-0.85855 0.275916 -3.55023e-20)
(-0.889227 0.265068 -3.48812e-20)
(-0.919256 0.254266 -3.41676e-20)
(-0.948665 0.243655 0)
(-0.977472 0.233336 -6.60206e-20)
(-1.00568 0.223378 0)
(-1.03331 0.213822 -3.1966e-20)
(-1.06034 0.204688 0)
(-1.08678 0.195976 0)
(-1.11261 0.187676 3.05713e-20)
(-1.13785 0.179768 0)
(-1.16247 0.172228 -2.97421e-20)
(-1.18647 0.165027 -1.93856e-23)
(-1.20985 0.158133 5.79672e-20)
(-1.2326 0.151516 -5.72101e-20)
(-1.25471 0.145146 0)
(-1.27617 0.138994 0)
(-1.29698 0.133034 -2.75258e-20)
(-1.31713 0.127241 0)
(-1.33661 0.121593 -2.69158e-20)
(-1.35541 0.116071 2.65869e-20)
(-1.37353 0.110656 2.62605e-20)
(-1.39094 0.105335 0)
(-1.40765 0.100093 -2.56122e-20)
(-1.42363 0.0949216 -2.5289e-20)
(-1.43888 0.0898106 4.9884e-20)
(-1.45339 0.0847532 -2.46416e-20)
(-1.46715 0.079744 -2.43164e-20)
(-1.48014 0.0747786 0)
(-1.49235 0.0698544 0)
(-1.50377 0.0649694 2.33297e-20)
(-1.5144 0.0601228 0)
(-1.52421 0.0553147 0)
(-1.53321 0.0505458 -4.46378e-20)
(-1.54138 0.0458174 -4.39505e-20)