/*--------------------------------*- C++ -*----------------------------------*\
| =========                 |                                                 |
| \\      /  F ield         | OpenFOAM: The Open Source CFD Toolbox           |
|  \\    /   O peration     | Version:  2412                                  |
|   \\  /    A nd           | Website:  www.openfoam.com                      |
|    \\/     M anipulation  |                                                 |
\*---------------------------------------------------------------------------*/
FoamFile
{
    version     2.0;
    format      ascii;
    arch        "LSB;label=32;scalar=64";
    class       volScalarField;
    location    "2.5";
    object      p;
}
// * * * * * * * * * * * * * * * * * * * * * * * * * * * * * * * * * * * * * //

dimensions      [0 2 -2 0 0 0 0];

internalField   nonuniform List<scalar> 
2200
(
0.650062
0.648341
0.652489
0.652127
0.660349
0.681751
0.720116
0.779256
0.864984
0.954264
0.991571
0.955027
0.90309
0.863053
0.835366
0.820798
0.815609
0.815249
0.812188
0.8135
0.651808
0.649026
0.650038
0.660672
0.68071
0.710341
0.760908
0.829398
0.916913
1.00426
1.03514
1.00078
0.947427
0.900645
0.862073
0.839006
0.82297
0.814373
0.813732
0.816386
0.687578
0.68008
0.679835
0.693754
0.721624
0.769449
0.836506
0.92843
1.03017
1.11927
1.14517
1.10739
1.04176
0.973309
0.92069
0.879687
0.856268
0.845171
0.846468
0.854106
0.781356
0.772114
0.76193
0.762433
0.784175
0.834934
0.923078
1.04642
1.17489
1.29141
1.31994
1.25455
1.16437
1.06446
0.990881
0.948725
0.931121
0.932041
0.942957
0.952418
0.916906
0.903815
0.885924
0.860424
0.864111
0.907464
0.999539
1.15383
1.32956
1.48733
1.52078
1.41828
1.28127
1.15094
1.074
1.03849
1.03828
1.06569
1.08401
1.09726
1.12104
1.10071
1.06408
1.01225
0.993394
1.00643
1.06626
1.21637
1.44781
1.66367
1.70156
1.54812
1.36038
1.23618
1.19036
1.1849
1.20604
1.2588
1.29697
1.31786
1.48195
1.45614
1.40271
1.32929
1.29686
1.29017
1.29748
1.36945
1.56591
1.82136
1.86537
1.68433
1.53246
1.4874
1.49466
1.51007
1.54771
1.6243
1.67826
1.70385
2.05046
2.0233
1.95943
1.8622
1.79271
1.79701
1.83519
1.8731
1.94657
2.12176
2.17024
2.08143
2.059
2.05117
2.02915
2.0351
2.10955
2.20877
2.27271
2.29997
2.78837
2.76017
2.68722
2.56752
2.44892
2.4226
2.51501
2.64817
2.7385
2.85709
2.91103
2.89183
2.86532
2.76496
2.69176
2.72915
2.85268
2.97423
3.0481
3.07669
3.64864
3.61918
3.53991
3.40114
3.2368
3.12338
3.20076
3.43767
3.75681
3.99925
4.06278
3.93404
3.68925
3.49461
3.44539
3.57058
3.73951
3.87962
3.9591
3.98866
4.59591
4.56746
4.48884
4.34448
4.15722
3.98319
3.95482
4.11839
4.53382
4.90247
4.9761
4.74163
4.41872
4.3117
4.36912
4.55477
4.74619
4.89092
4.96929
4.99744
5.55659
5.53211
5.46237
5.32667
5.13669
4.93411
4.7977
4.81558
5.04873
5.32831
5.42323
5.3039
5.18779
5.23467
5.3955
5.61118
5.80508
5.94112
6.01102
6.03541
6.43792
6.41823
6.36151
6.24595
6.07161
5.87229
5.70415
5.66166
5.72425
5.87735
6.00209
6.04131
6.11885
6.23766
6.43988
6.64984
6.82455
6.9398
6.99604
7.01542
7.16468
7.15117
7.11018
7.02286
6.88556
6.71421
6.56861
6.56385
6.63396
6.78976
6.93971
7.02328
7.11553
7.21672
7.40038
7.58317
7.72544
7.81504
7.85735
7.87223
7.70215
7.69294
7.66526
7.60551
7.51195
7.38285
7.29195
7.31303
7.42803
7.62221
7.80236
7.91345
7.98605
8.06314
8.19835
8.35686
8.46349
8.53028
8.56237
8.57396
8.0177
8.01294
7.99907
7.9637
7.91274
7.84168
7.78753
7.77703
7.91438
8.1083
8.33438
8.51124
8.5899
8.7299
8.8632
8.96747
9.03746
9.08336
9.1061
9.11564
8.12373
8.11965
8.11258
8.09514
8.07389
8.05178
8.01497
8.01897
8.18345
8.38884
8.67195
8.91419
9.03893
9.20306
9.33088
9.40243
9.45314
9.48555
9.50161
9.51159
8.03857
8.03743
8.04093
8.04066
8.03863
8.04504
8.05836
8.13391
8.33022
8.59068
8.93334
9.22249
9.39952
9.54693
9.65388
9.722
9.76777
9.79702
9.81193
9.82273
7.81966
7.81921
7.82578
7.83752
7.861
7.90346
7.97253
8.10265
8.35434
8.70193
9.11305
9.45291
9.67439
9.8324
9.93827
10.0082
10.0539
10.0801
10.0929
10.1063
7.45643
7.46227
7.48052
7.51033
7.55446
7.62744
7.75301
7.94654
8.27208
8.71954
9.21885
9.63419
9.90543
10.095
10.2175
10.2956
10.3469
10.3808
10.4001
10.4053
6.95771
6.9653
6.98993
7.03517
7.10992
7.23151
7.4211
7.70214
8.11828
8.67921
9.29325
9.78853
10.1212
10.3695
10.517
10.6151
10.6849
10.7253
10.7432
10.7483
6.28741
6.30275
6.34251
6.41334
6.53271
6.71408
6.99145
7.39389
7.92559
8.62241
9.36934
9.96854
10.3837
10.6726
10.8668
10.9946
11.0768
11.1261
11.1537
11.1666
5.39063
5.41739
5.48508
5.60361
5.78755
6.0686
6.47176
7.02156
7.71604
8.57408
9.46744
10.1838
10.6875
11.04
11.2849
11.4507
11.5596
11.6297
11.6755
11.6953
4.19861
4.25123
4.36261
4.55016
4.85071
5.28457
5.85746
6.58769
7.48307
8.5375
9.59069
10.4375
11.0411
11.4731
11.7802
11.9975
12.1489
12.2475
12.3091
12.3332
2.57855
2.68033
2.88325
3.23068
3.72532
4.36758
5.16606
6.12897
7.24786
8.51578
9.75087
10.7375
11.4471
11.9651
12.3441
12.6206
12.8207
12.9649
13.056
13.0898
0.426334
0.564545
0.976935
1.62292
2.41319
3.34808
4.42852
5.65898
7.02746
8.52535
9.94851
11.0777
11.8985
12.5071
12.9642
13.3144
13.5814
13.7749
13.8968
13.9343
-2.67814
-2.09053
-1.13936
-0.0920791
1.03902
2.29126
3.67535
5.18696
6.82879
8.57918
10.215
11.5158
12.4808
13.2167
13.785
14.2323
14.5998
14.9117
15.1441
15.2244
-6.32565
-4.78298
-3.21211
-1.77553
-0.312918
1.26269
2.94362
4.73893
6.66359
8.67174
10.5415
12.0369
13.1614
14.0376
14.7413
15.3118
15.777
16.1779
16.5454
16.7731
-8.85506
-6.9947
-5.17335
-3.4506
-1.63078
0.276625
2.25573
4.33721
6.52222
8.76474
10.8462
12.5114
13.7715
14.7552
15.5459
16.1968
16.7218
17.1277
17.5244
17.7237
-10.7153
-8.68439
-6.9039
-4.94345
-2.84143
-0.651907
1.6126
3.95812
6.37497
8.83652
11.1106
12.9207
14.2867
15.3419
16.1679
16.8308
17.3698
17.7795
18.1261
18.3127
-12.081
-10.0591
-8.29797
-6.19211
-3.90046
-1.47669
1.02851
3.5949
6.21848
8.8826
11.3229
13.2419
14.6704
15.7571
16.5879
17.232
17.7582
18.1742
18.5088
18.7075
-13.1272
-11.0467
-9.40898
-7.20729
-4.76801
-2.17504
0.508248
3.25377
6.05783
8.89404
11.4643
13.4586
14.9201
16.0202
16.8603
17.505
18.0199
18.4505
18.7728
18.99
-13.9604
-11.7808
-10.2288
-7.90541
-5.39607
-2.73438
0.0536946
2.93657
5.88759
8.86014
11.5361
13.5985
15.0973
16.2194
17.0806
17.7408
18.2494
18.6769
19.0083
19.2018
-14.6815
-12.509
-10.8267
-8.34153
-5.82046
-3.16202
-0.327388
2.64723
5.7087
8.7924
11.5702
13.7097
15.2563
16.4037
17.2792
17.9543
18.469
18.8886
19.2272
19.4047
-15.1762
-13.0594
-11.3001
-8.67473
-6.1767
-3.51253
-0.643364
2.39421
5.53874
8.71698
11.595
13.8154
15.416
16.5972
17.4939
18.1775
18.6878
19.0967
19.4208
19.6214
-15.7229
-13.5027
-11.612
-8.98201
-6.51967
-3.83175
-0.915762
2.17954
5.38924
8.64434
11.6134
13.9123
15.5665
16.776
17.6783
18.3672
18.8902
19.3107
19.6259
19.8295
-16.1152
-13.9541
-12.0208
-9.35354
-6.87401
-4.14323
-1.16467
1.98884
5.24942
8.56533
11.6137
13.985
15.6918
16.9397
17.8764
18.5868
19.1096
19.5209
19.8302
20.0385
-16.5114
-14.3614
-12.4628
-9.78791
-7.26714
-4.4593
-1.40923
1.79797
5.09884
8.46664
11.583
14.0243
15.7954
17.0956
18.0591
18.7868
19.329
19.7565
20.0663
20.2621
-17.0007
-14.8338
-12.8955
-10.2413
-7.67163
-4.78309
-1.66379
1.58913
4.92495
8.34171
11.5188
14.0317
15.8715
17.2312
18.2442
19.0028
19.5598
19.9914
20.3043
20.5092
-17.3853
-15.2579
-13.3574
-10.6524
-8.05638
-5.10075
-1.9258
1.3608
4.72898
8.1944
11.426
14.0054
15.9179
17.3507
18.4239
19.2421
19.8374
20.2792
20.5911
20.7821
-17.8438
-15.6666
-13.6913
-11.0014
-8.38806
-5.39091
-2.1834
1.12328
4.52211
8.03318
11.3078
13.9444
15.9333
17.4478
18.5941
19.4677
20.1037
20.5782
20.9122
21.1102
-18.1943
-16.0485
-14.0252
-11.2906
-8.66773
-5.64589
-2.42765
0.889515
4.31619
7.86303
11.1678
13.8522
15.9112
17.5026
18.7379
19.6902
20.3948
20.9284
21.2695
21.4512
-18.49
-16.3408
-14.3277
-11.5737
-8.9152
-5.87571
-2.65777
0.666614
4.11604
7.68496
11.0083
13.7255
15.8421
17.5134
18.8378
19.8907
20.6935
21.2987
21.6816
21.8805
-18.8124
-16.6532
-14.5733
-11.8247
-9.14308
-6.09304
-2.87648
0.454883
3.92058
7.49939
10.8323
13.5708
15.7328
17.478
18.8917
20.046
20.9639
21.6879
22.139
22.3496
-19.0514
-16.8703
-14.7819
-12.0274
-9.36144
-6.30408
-3.08674
0.25153
3.72731
7.30861
10.6439
13.3932
15.5811
17.3792
18.8786
20.1386
21.1831
22.0497
22.6368
22.8993
-19.2927
-17.0831
-14.9763
-12.2437
-9.5827
-6.51159
-3.29123
0.0540004
3.53571
7.11578
10.445
13.1907
15.3891
17.2255
18.7901
20.1426
21.3153
22.3495
23.1247
23.4221
-19.5842
-17.4519
-15.3391
-12.5454
-9.81665
-6.71707
-3.49258
-0.141527
3.34281
6.91754
10.2299
12.9591
15.1559
17.0078
18.6076
20.0254
21.29
22.4727
23.5313
23.9342
-19.8754
-17.7473
-15.6638
-12.8284
-10.0486
-6.92598
-3.69564
-0.342418
3.14043
6.70348
9.98857
12.6846
14.8546
16.6972
18.3079
19.7419
21.0381
22.2027
22.9925
23.229
-20.0558
-17.7932
-15.649
-12.9137
-10.2569
-7.1293
-3.89831
-0.546886
2.93033
6.47543
9.72437
12.3679
14.4879
16.2883
17.8604
19.2354
20.4286
21.4074
21.938
22.1593
-20.1924
-17.9094
-15.8034
-13.0678
-10.4567
-7.32046
-4.1021
-0.755783
2.71098
6.23258
9.43736
12.0108
14.053
15.7674
17.2475
18.5086
19.5323
20.2675
20.6019
20.8564
-20.511
-18.4254
-16.3427
-13.4757
-10.6739
-7.51752
-4.30921
-0.970886
2.4807
5.97417
9.12909
11.6187
13.5504
15.1344
16.4682
17.5671
18.4271
19.0241
19.2862
19.6196
-20.7926
-18.733
-16.6403
-13.7245
-10.8995
-7.73481
-4.52547
-1.19759
2.23574
5.69697
8.79962
11.1942
12.9865
14.4021
15.5445
16.4718
17.2026
17.666
17.8303
18.2315
-20.9162
-18.6557
-16.4818
-13.7023
-11.1059
-7.94669
-4.75208
-1.43646
1.97661
5.40175
8.44964
10.7425
12.3767
13.5995
14.5364
15.2567
15.7745
16.0968
16.2779
16.685
-21.0465
-18.8182
-16.7063
-13.9231
-11.3147
-8.1483
-4.98125
-1.6785
1.71195
5.09751
8.08449
10.2731
11.7422
12.753
13.4784
13.9949
14.2656
14.2978
14.2366
14.5181
-21.3619
-19.2843
-17.204
-14.3229
-11.5521
-8.36938
-5.20632
-1.91627
1.44986
4.79306
7.7114
9.795
11.1107
11.9133
12.4042
12.6913
12.6693
12.0639
11.1062
11.2568
-21.614
-19.4761
-17.2873
-14.4418
-11.7614
-8.58423
-5.4231
-2.14661
1.19565
4.49359
7.33785
9.31833
10.5026
11.106
11.3304
11.3205
11.0032
9.76103
7.43143
5.24738
-21.7116
-19.5049
-17.3215
-14.5166
-11.9338
-8.76325
-5.62677
-2.36502
0.955678
4.20613
6.97684
8.8601
9.93357
10.3696
10.3221
9.92989
9.26951
7.99778
3.8303
-7.38766
-21.9046
-19.7705
-17.6442
-14.7875
-12.1281
-8.9395
-5.82038
-2.57209
0.729644
3.93119
6.62686
8.41912
9.39433
9.69323
9.42654
8.72625
7.8289
6.95591
6.17089
1.74422
-22.1658
-20.0541
-17.8912
-15.0044
-12.3352
-9.12698
-6.01632
-2.77934
0.505548
3.65666
6.2785
7.99118
8.8816
9.08962
8.7456
8.04943
7.31904
7.13677
7.97766
6.9017
-22.3402
-20.1967
-18.01
-15.1309
-12.5258
-9.30288
-6.21999
-2.99128
0.27849
3.38009
5.93786
7.58983
8.43181
8.63401
8.39278
7.90291
7.38447
7.2034
7.65844
7.05746
-22.514
-20.3814
-18.2054
-15.325
-12.7302
-9.47873
-6.43775
-3.20649
0.0461673
3.10422
5.61311
7.23618
8.09094
8.39586
8.34741
8.10194
7.68688
7.22981
7.18902
7.10456
-22.7351
-20.6152
-18.4189
-15.5427
-12.9521
-9.66285
-6.67023
-3.42026
-0.19266
2.83567
5.32201
6.96138
7.88528
8.35746
8.48617
8.44166
8.14925
7.54531
7.41896
7.51779
-22.9229
-20.8024
-18.5841
-15.7265
-13.1585
-9.84205
-6.90973
-3.62468
-0.432414
2.5855
5.08704
6.78223
7.81376
8.43045
8.73251
8.88112
8.89293
8.46709
8.44084
8.53161
-23.0792
-20.9604
-18.7318
-15.9068
-13.3344
-10.0166
-7.13935
-3.81068
-0.662613
2.36653
4.92006
6.69449
7.86201
8.62698
9.11024
9.47947
9.83298
9.93604
10.0398
10.1605
-23.208
-21.11
-18.8564
-16.0833
-13.4655
-10.191
-7.33711
-3.97614
-0.86733
2.19056
4.81484
6.69014
7.99869
8.95998
9.67039
10.2639
10.8395
11.2803
11.5758
11.7199
-23.2884
-21.206
-18.9386
-16.2232
-13.5374
-10.3568
-7.48002
-4.12028
-1.03074
2.0582
4.75137
6.75585
8.20764
9.36368
10.274
10.9979
11.6429
12.1654
12.5451
12.7097
-23.2857
-21.2339
-18.9686
-16.2985
-13.5709
-10.485
-7.55549
-4.2437
-1.1555
1.96624
4.72206
6.84604
8.41462
9.66986
10.667
11.454
12.1122
12.6237
13.0079
13.205
-23.2002
-21.1762
-18.9213
-16.2944
-13.5553
-10.5433
-7.579
-4.3417
-1.25057
1.90834
4.71371
6.90103
8.5295
9.81189
10.8402
11.6601
12.3464
12.861
13.2522
13.4828
-22.9872
-21.014
-18.7776
-16.1905
-13.4697
-10.5265
-7.56223
-4.4016
-1.3129
1.8561
4.68153
6.8966
8.56357
9.87711
10.9365
11.7679
12.4776
13.0082
13.4097
13.6627
-22.6189
-20.7034
-18.508
-15.9776
-13.2977
-10.4261
-7.49228
-4.40633
-1.34978
1.78526
4.60236
6.84204
8.54785
9.8909
10.964
11.792
12.4993
13.0364
13.4417
13.7141
-22.0361
-20.235
-18.0951
-15.6285
-13.0037
-10.2143
-7.35338
-4.36024
-1.37367
1.69954
4.48712
6.72875
8.43804
9.7786
10.8462
11.6633
12.3599
12.9048
13.3094
13.6039
-21.2162
-19.5297
-17.4715
-15.0961
-12.5645
-9.89188
-7.1459
-4.26669
-1.37712
1.60593
4.33003
6.52803
8.19864
9.50894
10.5693
11.3809
12.0582
12.612
13.0151
13.3251
-20.0881
-18.5419
-16.5981
-14.3555
-11.9617
-9.44361
-6.84842
-4.11225
-1.35819
1.4865
4.10142
6.21733
7.83145
9.09522
10.1358
10.9439
11.6003
12.1567
12.5676
12.8903
-18.5677
-17.2079
-15.4263
-13.3588
-11.1566
-8.84009
-6.44029
-3.89446
-1.32973
1.32984
3.79556
5.79611
7.33362
8.53269
9.52801
10.3215
10.9582
11.505
11.9233
12.2531
-16.6007
-15.4665
-13.887
-12.0767
-10.1244
-8.06424
-5.91186
-3.61578
-1.2864
1.15009
3.42397
5.26574
6.68471
7.78856
8.69866
9.44252
10.046
10.5672
10.9918
11.3278
-14.133
-13.2967
-12.0124
-10.4964
-8.85727
-7.11419
-5.25946
-3.26429
-1.21143
0.95664
2.98977
4.62721
5.8787
6.8462
7.62864
8.26958
8.78706
9.22464
9.59464
9.89702
-11.1293
-10.6213
-9.72409
-8.6231
-7.38657
-6.01387
-4.5049
-2.84935
-1.09664
0.792548
2.58377
4.02672
5.11701
5.94599
6.59513
7.10813
7.5013
7.80286
8.0429
8.23814
-8.0187
-7.77573
-7.32511
-6.64551
-5.78374
-4.80013
-3.67935
-2.37467
-0.920738
0.69035
2.23953
3.49641
4.44022
5.14244
5.66779
6.07191
6.35928
6.55533
6.66773
6.75926
-5.45063
-5.29901
-5.20973
-4.7313
-4.23808
-3.6312
-2.85049
-1.84459
-0.684304
0.624229
1.90823
2.95819
3.73763
4.30437
4.70163
4.98856
5.17432
5.29204
5.31793
5.35805
-3.53885
-3.43233
-3.38563
-3.03561
-2.93695
-2.57958
-2.03971
-1.30073
-0.429608
0.588816
1.62221
2.47319
3.0953
3.53897
3.83159
4.02236
4.1285
4.20535
4.21875
4.24181
-2.18608
-2.13627
-2.09655
-1.85824
-1.93898
-1.643
-1.28418
-0.795218
-0.182156
0.597652
1.41779
2.09316
2.57752
2.91517
3.13044
3.26277
3.33167
3.41079
3.42561
3.46467
-1.31346
-1.30997
-1.31299
-1.1689
-1.24774
-0.900908
-0.693274
-0.384034
0.0476889
0.644003
1.28156
1.80718
2.1798
2.43774
2.609
2.72332
2.78037
2.86945
2.8759
2.89805
-0.776615
-0.800811
-0.849453
-0.748877
-0.817958
-0.442616
-0.362736
-0.123575
0.225365
0.686497
1.17471
1.58336
1.87763
2.08682
2.23686
2.34929
2.38762
2.46626
2.46948
2.47954
-0.449724
-0.468267
-0.509531
-0.443617
-0.515651
-0.203838
-0.24522
0.0152917
0.324979
0.692829
1.07853
1.4082
1.65164
1.82736
1.95481
2.05624
2.06904
2.12839
2.12963
2.13405
-0.189582
-0.201438
-0.229715
-0.177504
-0.25001
-0.0329057
-0.15353
0.119862
0.374179
0.669303
0.989221
1.26416
1.46634
1.60761
1.70258
1.78286
1.77839
1.82261
1.82226
1.8242
0.0269829
0.0163295
-6.52674e-05
0.0423723
-0.0162438
0.140487
0.00212767
0.24896
0.415426
0.641905
0.90482
1.12878
1.28904
1.39585
1.46061
1.52344
1.51526
1.54737
1.54717
1.54816
0.18314
0.170735
0.160265
0.191277
0.148005
0.277136
0.15939
0.372287
0.455936
0.623605
0.827588
1.00014
1.12203
1.20268
1.24893
1.30129
1.29514
1.31808
1.31833
1.31871
0.273311
0.259525
0.251743
0.272844
0.237972
0.341284
0.256873
0.441184
0.477178
0.606703
0.760543
0.890555
0.983594
1.04725
1.08301
1.12656
1.12274
1.13635
1.13663
1.13631
0.318995
0.306261
0.301294
0.316513
0.289495
0.360595
0.298172
0.457589
0.472847
0.581433
0.700747
0.801382
0.874188
0.925154
0.952765
0.985949
0.982929
0.991758
0.991464
0.990482
0.341751
0.331756
0.329121
0.33992
0.320091
0.369675
0.321735
0.45079
0.455673
0.547563
0.64244
0.722483
0.779852
0.819778
0.840648
0.864264
0.862589
0.868492
0.868155
0.86712
0.351537
0.344518
0.34338
0.351154
0.337841
0.373553
0.33785
0.436418
0.437142
0.510664
0.58477
0.647849
0.692395
0.723092
0.739133
0.755848
0.75553
0.759651
0.759524
0.758751
0.34881
0.344109
0.343606
0.34913
0.340819
0.366737
0.341707
0.414105
0.416926
0.472568
0.528928
0.577597
0.611829
0.635433
0.648172
0.660122
0.660849
0.663748
0.663751
0.66324
0.334986
0.331943
0.331643
0.335431
0.330613
0.348704
0.331892
0.384487
0.391007
0.432591
0.475455
0.512808
0.539071
0.55722
0.567322
0.575883
0.576923
0.57892
0.57889
0.578546
0.313879
0.311938
0.31174
0.314358
0.311929
0.324266
0.313453
0.34931
0.358862
0.390425
0.423482
0.452251
0.472461
0.486368
0.494258
0.50033
0.50147
0.502828
0.502749
0.502504
0.287139
0.285994
0.285904
0.287633
0.286709
0.294888
0.289124
0.311822
0.322077
0.346152
0.37189
0.394174
0.409725
0.420301
0.426384
0.43074
0.431773
0.432721
0.432613
0.432439
0.256511
0.255796
0.255704
0.256832
0.256613
0.261713
0.260254
0.273989
0.28326
0.301445
0.321253
0.338263
0.35007
0.358042
0.362692
0.365826
0.366728
0.367364
0.36722
0.367091
0.222314
0.221865
0.221768
0.222561
0.222547
0.225749
0.226298
0.234935
0.242562
0.256073
0.271068
0.283866
0.292752
0.298733
0.302275
0.304554
0.305272
0.305707
0.305569
0.305465
0.185169
0.184871
0.184798
0.185334
0.1855
0.18774
0.188964
0.194497
0.200385
0.210246
0.221358
0.230839
0.237394
0.241746
0.24432
0.245897
0.246392
0.246646
0.246459
0.246364
0.146318
0.146082
0.145982
0.146272
0.146431
0.148222
0.149375
0.152958
0.157318
0.164317
0.172294
0.178974
0.183571
0.186593
0.188354
0.18938
0.189721
0.189859
0.189685
0.189603
0.10591
0.105809
0.105723
0.105872
0.106077
0.106954
0.107938
0.110215
0.113153
0.117708
0.123027
0.127475
0.130484
0.132443
0.133575
0.134206
0.134417
0.1345
0.134358
0.134296
0.0642533
0.0641
0.0640316
0.0641577
0.0641612
0.0646524
0.0652089
0.0664681
0.0680959
0.0706877
0.0737094
0.0763182
0.0779993
0.0790674
0.0796707
0.0799973
0.0800575
0.0800806
0.0799507
0.0799152
0.0216316
0.0215072
0.021356
0.0212969
0.0212458
0.0214229
0.0215539
0.0219918
0.0225079
0.0234517
0.0246092
0.0254997
0.0260702
0.026426
0.0266154
0.0267271
0.0266914
0.0266764
0.0264892
0.0264118
11.2965
15.9608
17.1238
18.5824
19.7824
20.8729
21.8627
22.8093
23.5807
24.0391
16.3842
18.6713
19.4069
20.3485
21.1996
21.9556
22.6082
23.1595
23.5294
23.5993
19.189
20.335
20.8954
21.4887
22.0364
22.5224
22.9256
23.24
23.418
23.4496
20.7684
21.4494
21.8218
22.2095
22.5486
22.8359
23.0637
23.2309
23.3237
23.3367
21.7765
22.1403
22.3747
22.6067
22.8117
22.9886
23.1293
23.2226
23.2623
23.2749
22.3451
22.5824
22.7243
22.8658
22.9845
23.0849
23.1596
23.2141
23.2412
23.2569
22.729
22.8576
22.9319
23.021
23.0891
23.1584
23.2032
23.2395
23.2537
23.273
22.953
23.0468
23.0761
23.1486
23.1771
23.2332
23.2526
23.2818
23.2922
23.3098
23.1103
23.1739
23.1879
23.2352
23.2558
23.2875
23.2996
23.3202
23.3284
23.345
23.2189
23.2551
23.2737
23.2954
23.3106
23.3274
23.3371
23.3554
23.3618
23.377
23.2996
23.318
23.3303
23.3433
23.3596
23.3727
23.3873
23.4045
23.4127
23.429
23.3773
23.3954
23.4125
23.4273
23.4446
23.4591
23.4732
23.4845
23.4912
23.5061
23.4955
23.5098
23.5279
23.5402
23.5509
23.5611
23.5687
23.5744
23.577
23.5869
23.6179
23.62
23.6298
23.6345
23.635
23.6379
23.6426
23.6493
23.6535
23.665
23.7217
23.7082
23.701
23.6953
23.6921
23.6927
23.6993
23.7109
23.7257
23.7536
23.8375
23.7839
23.7529
23.7345
23.7274
23.7281
23.7371
23.7567
23.7878
23.8553
)
;

boundaryField
{
    wall-4
    {
        type            zeroGradient;
    }
    pressure-outlet-7
    {
        type            fixedValue;
        value           uniform 0;
    }
    velocity-inlet-6
    {
        type            zeroGradient;
    }
    velocity-inlet-5
    {
        type            zeroGradient;
    }
    frontAndBackPlanes
    {
        type            empty;
    }
}


// ************************************************************************* //
