/*--------------------------------*- C++ -*----------------------------------*\
| =========                 |                                                 |
| \\      /  F ield         | OpenFOAM: The Open Source CFD Toolbox           |
|  \\    /   O peration     | Version:  2412                                  |
|   \\  /    A nd           | Website:  www.openfoam.com                      |
|    \\/     M anipulation  |                                                 |
\*---------------------------------------------------------------------------*/
FoamFile
{
    version     2.0;
    format      ascii;
    arch        "LSB;label=32;scalar=64";
    class       surfaceScalarField;
    location    "2.5";
    object      phi;
}
// * * * * * * * * * * * * * * * * * * * * * * * * * * * * * * * * * * * * * //

dimensions      [0 3 -1 0 0 0 0];

oriented        oriented;

internalField   nonuniform List<scalar> 
4262
(
0.00103786
0.219475
0.0054259
0.824265
0.000305202
1.77226
-0.00376607
3.16924
-0.00774677
5.18858
-0.0101974
8.01682
-0.009056
11.846
-0.00898671
16.8197
-0.00791567
22.8808
-0.00324258
29.5237
0.00307407
29.522
0.0057717
22.8791
0.00632981
16.8192
0.00747481
11.846
0.00517828
8.01666
0.00219551
5.18759
-0.00173903
3.1691
-0.00708053
1.77248
-0.00182242
0.823395
0.21869
-0.0242128
0.243688
-0.0208323
0.820885
-0.0232468
1.77468
-0.026426
3.17242
-0.0302611
5.19242
-0.0405004
8.02705
-0.0435642
11.8491
-0.0440834
16.8202
-0.0356271
22.8723
-0.00926518
29.4973
0.0176751
29.4951
0.0305094
22.8663
0.0315489
16.8181
0.0304401
11.8471
0.0231153
8.02399
0.0212202
5.18948
0.0198786
3.17044
0.0192117
1.77315
0.0235137
0.819093
0.242204
-0.0575236
0.301211
-0.0734486
0.83681
-0.0709732
1.7722
-0.0800716
3.18152
-0.0802314
5.19258
-0.0751238
8.02195
-0.0777684
11.8517
-0.0708542
16.8133
-0.0520945
22.8535
-0.0133245
29.4585
0.0253216
29.4565
0.0474005
22.8442
0.0588649
16.8067
0.0601694
11.8458
0.0681453
8.01601
0.0705891
5.18704
0.0646707
3.17636
0.070611
1.76721
0.0567236
0.83298
0.298927
-0.0787435
0.379955
-0.129001
0.887067
-0.122206
1.76541
-0.138245
3.19755
-0.157961
5.2123
-0.149449
8.01343
-0.138865
11.8411
-0.11013
16.7845
-0.0742466
22.8177
-0.0164318
29.4007
0.0397737
29.4002
0.07716
22.8068
0.111155
16.7727
0.128277
11.8287
0.141232
8.00306
0.125314
5.20296
0.113895
3.18778
0.124151
1.75696
0.0761779
0.880954
0.375105
-0.0804803
0.460435
-0.169095
0.975682
-0.159974
1.75629
-0.164508
3.20209
-0.215584
5.26337
-0.239744
8.03759
-0.226875
11.8283
-0.18239
16.7401
-0.119945
22.7552
-0.0219341
29.3027
0.0767676
29.3015
0.144736
22.7389
0.19524
16.7222
0.212591
11.8113
0.193963
8.02168
0.149882
5.24704
0.151001
3.18666
0.164191
1.74377
0.0786983
0.966446
0.453804
-0.0911131
0.551548
-0.214841
1.09941
-0.236167
1.77761
-0.233763
3.19969
-0.279986
5.30959
-0.325101
8.08271
-0.319813
11.823
-0.266164
16.6864
-0.174239
22.6633
-0.0273948
29.1559
0.119045
29.1551
0.217057
22.6408
0.280002
16.6592
0.294204
11.7971
0.25871
8.05718
0.220958
5.28479
0.229266
3.17835
0.211984
1.76105
0.0904956
1.08794
0.544299
-0.125252
0.6768
-0.28636
1.26052
-0.385336
1.87659
-0.400547
3.2149
-0.394805
5.30385
-0.429759
8.11766
-0.42923
11.8224
-0.374629
16.6318
-0.256192
22.5448
-0.0324567
28.9321
0.191763
28.9309
0.319233
22.5134
0.383288
16.5952
0.395967
11.7844
0.371602
8.08154
0.384529
5.27186
0.374915
3.18797
0.279435
1.85653
0.121376
1.24599
0.665675
-0.165898
0.842698
-0.37185
1.46647
-0.551036
2.05578
-0.609552
3.27341
-0.568247
5.26255
-0.554219
8.10364
-0.538856
11.8071
-0.472063
16.565
-0.334948
22.4077
-0.0395127
28.6367
0.259331
28.632
0.409786
22.3629
0.488147
16.5168
0.51485
11.7577
0.541466
8.05493
0.593433
5.21989
0.541933
3.23947
0.366121
2.03234
0.163031
1.44908
0.828705
-0.195086
1.03778
-0.441484
1.71287
-0.679314
2.29361
-0.806413
3.40051
-0.796317
5.25245
-0.735203
8.04252
-0.643848
11.7157
-0.538429
16.4596
-0.35504
22.2243
-0.0469658
28.3286
0.264873
28.3202
0.459483
22.1683
0.583355
16.3929
0.690279
11.6508
0.767518
7.97769
0.788999
5.19841
0.668444
3.36002
0.434805
2.26598
0.192468
1.69142
1.02117
-0.214922
1.25271
-0.498134
1.99608
-0.789434
2.58491
-0.996117
3.60719
-1.0605
5.31684
-1.0016
7.98362
-0.856535
11.5707
-0.693315
16.2964
-0.430679
21.9617
-0.0565925
27.9545
0.323144
27.9405
0.598975
21.8925
0.785763
16.2062
0.954449
11.4821
1.02895
7.90319
0.975089
5.25227
0.774891
3.56022
0.488904
2.55197
0.21029
1.97003
1.23146
-0.229019
1.48173
-0.546279
2.31334
-0.889834
2.92846
-1.17695
3.89431
-1.33157
5.47146
-1.31635
7.9684
-1.17234
11.4266
-0.9458
16.0698
-0.598299
21.6142
-0.0653995
27.4216
0.473845
27.4012
0.840768
21.5256
1.0899
15.957
1.26217
11.3099
1.29143
7.87393
1.14761
5.39609
0.869403
3.83842
0.533847
2.88752
0.222102
2.28178
1.45357
-0.228603
1.71033
-0.566615
2.65135
-0.94581
3.30766
-1.29576
4.24425
-1.53263
5.70833
-1.5696
8.00538
-1.44888
11.3059
-1.15836
15.7793
-0.728329
21.1842
-0.0796155
26.7729
0.57755
26.7441
1.02855
21.0746
1.35269
15.6329
1.50427
11.1583
1.48415
7.89405
1.26084
5.6194
0.920365
4.1789
0.549002
3.25888
0.218438
2.61234
1.672
-0.213151
1.92348
-0.554016
2.99222
-0.947881
3.70152
-1.33664
4.63301
-1.63959
6.01128
-1.74969
8.11548
-1.66105
11.2173
-1.31257
15.4308
-0.790359
20.662
-0.0998136
26.0824
0.604966
26.0393
1.15659
20.5229
1.54117
15.2483
1.65949
11.04
1.57615
7.97739
1.28766
5.90789
0.911223
4.55533
0.52847
3.64164
0.199036
2.94178
1.87104
-0.184982
2.10846
-0.512108
3.31934
-0.898675
4.08809
-1.30066
5.03499
-1.65499
6.36561
-1.85179
8.31228
-1.81556
11.1811
-1.46573
15.081
-0.864536
20.0608
-0.120435
25.3383
0.640878
25.278
1.28079
19.883
1.66052
14.8686
1.72737
10.9731
1.56268
8.14208
1.23041
6.24016
0.846816
4.93893
0.476958
4.01149
0.167944
3.25079
2.03898
-0.155694
2.26415
-0.456715
3.62036
-0.82083
4.4522
-1.21408
5.42824
-1.5886
6.74013
-1.84615
8.56983
-1.86321
11.1981
-1.57712
14.7949
-0.956814
19.4405
-0.144979
24.5265
0.687308
24.4457
1.3536
19.2167
1.67775
14.5444
1.68567
10.9652
1.45359
8.37415
1.10732
6.58643
0.743142
5.30311
0.405432
4.3492
0.125617
3.53061
2.1646
-0.119701
2.38386
-0.383413
3.88408
-0.707474
4.77626
-1.067
5.78777
-1.43103
7.10416
-1.72427
8.86308
-1.80502
11.2789
-1.58704
14.5769
-1.01463
18.8681
-0.18476
23.6966
0.675939
23.585
1.30003
18.5926
1.57031
14.2741
1.52424
11.0113
1.26709
8.6313
0.940147
6.91337
0.613917
5.62934
0.321407
4.64171
0.0824196
3.7696
2.24702
-0.093601
2.47746
-0.316371
4.10685
-0.58921
5.0491
-0.897215
6.09577
-1.21636
7.42331
-1.49093
9.13764
-1.62165
11.4096
-1.49461
14.4499
-1.01396
18.3874
-0.232883
22.9155
0.581206
22.7709
1.11108
18.0628
1.29865
14.0866
1.22169
11.0882
0.996649
8.85634
0.726648
7.18338
0.462259
5.89373
0.228718
4.87526
0.0447593
3.95355
2.29178
-0.0671127
2.54457
-0.245171
4.28491
-0.47039
5.27432
-0.729974
6.35536
-1.00334
7.69668
-1.25369
9.38799
-1.40594
11.5618
-1.35125
14.3952
-0.974474
18.0106
-0.294343
22.2354
0.413899
22.0626
0.843297
17.6334
0.971203
13.9587
0.898404
11.161
0.725056
9.02969
0.521217
7.38722
0.323131
6.09181
0.149455
5.04893
0.0174235
4.08559
2.3092
-0.0663275
2.6109
-0.216599
4.43518
-0.397351
5.45507
-0.604636
6.56264
-0.828959
7.921
-1.04516
9.60419
-1.19464
11.7113
-1.18689
14.3874
-0.911505
17.7352
-0.36571
21.6896
0.213081
21.4839
0.546776
17.2997
0.642095
13.8633
0.589842
11.2133
0.467636
9.15189
0.327613
7.52724
0.193436
6.22599
0.0789958
5.16337
0.000116833
4.16446
2.30932
-0.0531465
2.66404
-0.169996
4.55203
-0.324501
5.60958
-0.506306
6.74444
-0.701746
8.11644
-0.890803
9.79325
-1.03847
11.859
-1.06474
14.4137
-0.884731
17.5552
-0.474318
21.2792
-0.0244745
21.034
0.242291
17.0329
0.326585
13.7791
0.309715
11.2302
0.245585
9.21602
0.167204
7.60562
0.0915202
6.30167
0.0270031
5.22789
-0.00743304
4.1989
2.30189
-0.0763826
2.74043
-0.189021
4.66466
-0.317714
5.73827
-0.465093
6.89182
-0.630871
8.28222
-0.805941
9.96832
-0.954202
12.0072
-1.01344
14.473
-0.915796
17.4576
-0.611225
20.9746
-0.265683
20.6885
-0.0455421
16.8128
0.0488108
13.6847
0.0691809
11.2098
0.0534949
9.23171
0.0217775
7.63734
-0.0107144
6.33417
-0.0281145
5.24529
-0.026858
4.19764
2.27503
-0.0718357
2.81226
-0.174635
4.76746
-0.306254
5.86989
-0.462212
7.04778
-0.634706
8.45471
-0.805241
10.1389
-0.955197
12.1572
-1.03986
14.5576
-1.00729
17.425
-0.784573
20.7519
-0.512433
20.4163
-0.320556
16.6209
-0.212991
13.5771
-0.151853
11.1487
-0.115634
9.19549
-0.0885043
7.61021
-0.0686274
6.31429
-0.055827
5.23249
-0.0400331
4.18185
2.235
-0.117711
2.92997
-0.237602
4.88736
-0.368569
6.00086
-0.520858
7.20007
-0.694332
8.62819
-0.874957
10.3195
-1.03258
12.3148
-1.13441
14.6594
-1.14817
17.4388
-0.987937
20.5916
-0.759922
20.1883
-0.57811
16.4391
-0.446802
13.4458
-0.346635
11.0485
-0.268919
9.11777
-0.208977
7.55027
-0.161329
6.26664
-0.123328
5.19449
-0.0721568
4.13068
2.16284
-0.157073
3.08704
-0.294132
5.02441
-0.460806
6.16753
-0.660237
7.3995
-0.864525
8.83247
-1.05342
10.5084
-1.21235
12.4737
-1.32228
14.7694
-1.35834
17.4748
-1.22937
20.4627
-1.02142
19.9804
-0.837928
16.2556
-0.685361
13.2933
-0.557352
10.9205
-0.444393
9.00481
-0.340127
7.446
-0.247463
6.17398
-0.168365
5.11539
-0.0924984
4.05481
2.07034
-0.263501
3.35055
-0.438919
5.19983
-0.673709
6.40232
-0.909593
7.63539
-1.12944
9.05232
-1.33118
10.7101
-1.49503
12.6376
-1.60424
14.8786
-1.63267
17.5033
-1.50715
20.3372
-1.30275
19.776
-1.10641
16.0592
-0.926017
13.1129
-0.764032
10.7585
-0.621818
8.8626
-0.497072
7.32125
-0.381625
6.05853
-0.271944
5.00571
-0.14182
3.92469
1.92852
-0.381303
3.73185
-0.748769
5.5673
-1.06837
6.72192
-1.30883
7.87584
-1.534
9.2775
-1.73449
10.9106
-1.88503
12.7881
-1.97264
14.9662
-1.96281
17.4934
-1.82098
20.1953
-1.60516
19.5602
-1.38821
15.8423
-1.18451
12.9092
-0.996825
10.5708
-0.823752
8.68953
-0.668399
7.1659
-0.528316
5.91845
-0.377539
4.85493
-0.183679
3.73083
1.74484
-0.259332
3.99118
-0.55736
5.86533
-0.807384
6.97195
-1.09972
8.16818
-1.39156
9.56933
-1.65282
11.1719
-1.87542
13.0107
-2.05266
15.1434
-2.14314
17.5839
-2.12302
20.1752
-1.98059
19.4177
-1.7748
15.6365
-1.54094
12.6753
-1.29614
10.326
-1.04535
8.43874
-0.794724
6.91528
-0.558341
5.68206
-0.34616
4.64275
-0.145932
3.5306
1.59891
-0.106585
4.09776
-0.207786
5.96653
-0.4253
7.18946
-0.674594
8.41748
-0.912141
9.80688
-1.12808
11.3878
-1.32191
13.2046
-1.47431
15.2958
-1.54728
17.6569
-1.53035
20.1583
-1.39671
19.2841
-1.20338
15.4432
-0.984922
12.4568
-0.76532
10.1064
-0.564225
8.23764
-0.384683
6.73574
-0.22093
5.51831
-0.0796658
4.50149
-0.00530544
3.45624
1.5936
-0.0882951
4.18606
-0.162946
6.04118
-0.277112
7.30363
-0.439148
8.57951
-0.613357
9.98109
-0.78586
11.5603
-0.951476
13.3702
-1.0799
15.4243
-1.14016
17.7172
-1.127
20.1451
-1.01077
19.1678
-0.848824
15.2812
-0.675222
12.2832
-0.507587
9.93876
-0.357852
8.08791
-0.233543
6.61143
-0.127625
5.41239
-0.0352576
4.40912
0.0277229
3.39326
1.62133
-0.0303152
4.21638
-0.147741
6.1586
-0.25138
7.40727
-0.34113
8.66926
-0.44297
10.0829
-0.577035
11.6944
-0.711571
13.5047
-0.817354
15.5301
-0.867928
17.7677
-0.859239
20.1364
-0.767642
19.0763
-0.644131
15.1577
-0.516022
12.1551
-0.392228
9.81496
-0.275869
7.97155
-0.168622
6.50418
-0.0762165
5.31999
0.00174943
4.33115
0.0381849
3.35682
1.65951
-0.0214654
4.23784
-0.114151
6.25129
-0.200396
7.49351
-0.267785
8.73665
-0.343393
10.1585
-0.448079
11.7991
-0.555291
13.6119
-0.642956
15.6177
-0.688143
17.8129
-0.687926
20.1362
-0.619955
19.0083
-0.522823
15.0606
-0.419286
12.0516
-0.317737
9.71341
-0.219054
7.87286
-0.127315
6.41244
-0.0488772
5.24155
0.0164165
4.26586
0.0363758
3.33686
1.69589
-0.00939475
4.24724
-0.105676
6.34757
-0.168628
7.55646
-0.21351
8.78153
-0.291846
10.2369
-0.373577
11.8808
-0.457711
13.6961
-0.530728
15.6907
-0.573394
17.8556
-0.578392
20.1412
-0.522514
18.9524
-0.43823
14.9763
-0.34632
11.9597
-0.257913
9.62501
-0.177368
7.79232
-0.106696
6.34177
-0.0496894
5.18454
-0.00263032
4.2188
0.0199555
3.31428
1.71584
0.0188084
4.22843
-0.0369358
6.40332
-0.104978
7.6245
-0.178058
8.85461
-0.257103
10.3159
-0.33025
11.9539
-0.39927
13.7651
-0.459834
15.7513
-0.497621
17.8934
-0.503227
20.1468
-0.455124
18.9043
-0.380871
14.9021
-0.300338
11.8792
-0.22548
9.55015
-0.159074
7.72591
-0.09944
6.28213
-0.0527643
5.13787
-0.0208922
4.18693
-0.00615741
3.29954
1.70968
-0.00253621
4.23096
-0.0276252
6.42841
-0.071361
7.66824
-0.145327
8.92858
-0.222753
10.3933
-0.294451
12.0256
-0.358193
13.8288
-0.411365
15.8045
-0.446229
17.9282
-0.455442
20.156
-0.416656
18.8655
-0.352712
14.8381
-0.281784
11.8082
-0.213334
9.4817
-0.15289
7.66547
-0.103462
6.23271
-0.064217
5.09862
-0.0281462
4.15086
-0.0109831
3.28238
1.6987
0.0160501
4.21491
-0.0283305
6.47279
-0.0731089
7.71302
-0.136584
8.99205
-0.196402
10.4532
-0.262111
12.0913
-0.323131
13.8898
-0.375154
15.8565
-0.412043
17.9651
-0.427327
20.1713
-0.39666
18.8348
-0.338765
14.7802
-0.272351
11.7418
-0.210624
9.41997
-0.159346
7.61419
-0.112371
6.18573
-0.0708581
5.05711
-0.0350658
4.11507
-0.0119441
3.25926
1.68676
0.0310565
4.18386
-0.00307088
6.50691
-0.0603344
7.77028
-0.118357
9.05008
-0.180606
10.5154
-0.237897
12.1486
-0.293376
13.9453
-0.346085
15.9092
-0.387865
18.0069
-0.411326
20.1947
-0.392648
18.8162
-0.347279
14.7349
-0.291935
11.6865
-0.233771
9.36181
-0.17098
7.5514
-0.110875
6.12563
-0.0672028
5.01344
-0.0388003
4.08666
-0.0157951
3.23625
1.67096
-0.0124512
4.19631
-0.0455489
6.54001
-0.0644263
7.78916
-0.10649
9.09214
-0.159609
10.5685
-0.213703
12.2027
-0.268738
14.0004
-0.322545
15.963
-0.370233
18.0546
-0.403313
20.2278
-0.397296
18.8102
-0.356852
14.6944
-0.29408
11.6237
-0.227521
9.29525
-0.181985
7.50587
-0.150456
6.0941
-0.112345
4.97533
-0.0617849
4.0361
-0.0222515
3.19672
1.64871
0.0239473
4.17236
-0.0127288
6.57669
-0.0587139
7.83514
-0.0982247
9.13165
-0.142214
10.6125
-0.192722
12.2532
-0.248209
14.0558
-0.302805
16.0176
-0.355955
18.1077
-0.39746
20.2693
-0.405279
18.818
-0.380848
14.67
-0.339512
11.5824
-0.285728
9.24146
-0.209468
7.42961
-0.128684
6.01331
-0.070838
4.91748
-0.0544295
4.0197
-0.0298582
3.17215
1.61885
-0.00367274
4.17603
-0.0308429
6.60386
-0.0522776
7.85658
-0.0893774
9.16875
-0.130563
10.6537
-0.177787
12.3005
-0.231305
14.1094
-0.286395
16.0727
-0.343859
18.1652
-0.39308
20.3186
-0.416691
18.8416
-0.403692
14.657
-0.355979
11.5346
-0.290282
9.17577
-0.245493
7.38482
-0.211233
5.97905
-0.16552
4.87177
-0.0929309
3.94711
-0.0362867
3.1155
1.58257
0.00638171
4.16965
-0.0211463
6.63139
-0.0458751
7.88131
-0.0844237
9.2073
-0.122469
10.6918
-0.166666
12.3447
-0.217304
14.16
-0.2724
16.1278
-0.332774
18.2256
-0.389002
20.3748
-0.42656
18.8791
-0.429192
14.6596
-0.404882
11.5103
-0.358347
9.12923
-0.272005
7.29848
-0.181655
5.8887
-0.111044
4.80116
-0.0867989
3.92286
-0.0495959
3.0783
1.53297
0.0145849
4.15507
-0.0100458
6.65602
-0.0419994
7.91326
-0.0774079
9.24271
-0.115779
10.7301
-0.157373
12.3862
-0.205224
14.2079
-0.260164
16.1827
-0.322254
18.2877
-0.384612
20.4371
-0.434377
18.9289
-0.45232
14.6776
-0.431161
11.4892
-0.378914
9.07699
-0.330397
7.24996
-0.279027
5.83733
-0.213223
4.73535
-0.127246
3.83688
-0.0547818
3.00584
1.47819
-0.00108192
4.15615
-0.0221313
6.67707
-0.0339145
7.92504
-0.0723625
9.28116
-0.107889
10.7657
-0.147647
12.426
-0.193835
14.254
-0.24859
16.2375
-0.311265
18.3503
-0.379263
20.5051
-0.439931
18.9896
-0.474214
14.7118
-0.477619
11.4926
-0.454877
9.05424
-0.387776
7.18286
-0.289517
5.73907
-0.199947
4.64578
-0.141849
3.77878
-0.0764313
2.94042
1.40176
0.0119007
4.14425
-0.0108019
6.69977
-0.0385941
7.95284
-0.0676477
9.31021
-0.100274
10.7983
-0.138444
12.4642
-0.182939
14.2985
-0.237026
16.2916
-0.299687
18.413
-0.372925
20.5784
-0.442282
19.0589
-0.487327
14.7569
-0.504518
11.5098
-0.482913
9.03264
-0.441308
7.14125
-0.395908
5.69367
-0.315401
4.56528
-0.187678
3.65106
-0.0795949
2.83234
1.32216
0.00639594
4.13785
-0.0146127
6.72078
-0.0291101
7.96733
-0.0636897
9.34479
-0.0930104
10.8276
-0.129003
12.5002
-0.172049
14.3416
-0.225022
16.3445
-0.287348
18.4753
-0.364477
20.6555
-0.44167
19.1361
-0.499118
14.8143
-0.534417
11.5451
-0.547767
9.04599
-0.523545
7.11703
-0.45152
5.62165
-0.351364
4.46512
-0.246185
3.54588
-0.114896
2.70105
1.20727
0.00235799
4.13549
-0.017037
6.74017
-0.0335477
7.98384
-0.0595968
9.37084
-0.0870378
10.855
-0.12042
12.5335
-0.161534
14.3827
-0.212805
16.3958
-0.27455
18.5371
-0.354492
20.7354
-0.438762
19.2204
-0.507233
14.8828
-0.553834
11.5917
-0.568979
9.06113
-0.559512
7.10757
-0.541262
5.6034
-0.484557
4.40842
-0.347948
3.40927
-0.166624
2.51972
1.04064
0.00474237
4.13075
-0.00936637
6.75428
-0.027363
8.00184
-0.0555598
9.39904
-0.0801108
10.8796
-0.112248
12.5657
-0.151932
14.4224
-0.201935
16.4458
-0.263442
18.5986
-0.345282
20.8173
-0.435194
19.3103
-0.514417
14.962
-0.577639
11.6549
-0.62136
9.10485
-0.642678
7.12888
-0.624064
5.58478
-0.578927
4.36328
-0.480102
3.31045
-0.206178
2.2458
0.834463
-0.000504125
4.13126
-0.0166146
6.77039
-0.0286624
8.01389
-0.0529216
9.4233
-0.0764551
10.9031
-0.110283
12.5995
-0.151018
14.4631
-0.203562
16.4984
-0.270019
18.665
-0.361215
20.9085
-0.466553
19.4156
-0.567863
15.0633
-0.657709
11.7447
-0.721481
9.16862
-0.749441
7.15684
-0.75997
5.59531
-0.750746
4.35406
-0.769614
3.32932
-0.62219
2.09838
1.09859
-0.886312
0.00417835
4.12708
-0.0115499
6.78612
-0.0277616
8.0301
-0.0495174
9.44505
-0.0739402
10.9275
-0.105121
12.6307
-0.145177
14.5032
-0.198067
16.5513
-0.266588
18.7336
-0.362955
21.0048
-0.478991
19.5317
-0.597552
15.1819
-0.712956
11.8602
-0.822582
9.27825
-0.927145
7.26141
-1.027
5.69517
-1.12053
4.44758
-1.05692
3.26571
-0.915589
1.95704
1.3773
-1.1943
0.00165786
4.12542
-0.0104243
6.7982
-0.0289662
8.04864
-0.0496578
9.46574
-0.0740493
10.9519
-0.100506
12.6572
-0.1398
14.5425
-0.192557
16.604
-0.262762
18.8038
-0.363941
21.106
-0.490049
19.6578
-0.627866
15.3197
-0.773348
12.0056
-0.919716
9.42462
-1.05703
7.39872
-1.17541
5.81355
-1.22897
4.50113
-1.13319
3.16993
-1.28188
2.10574
1.68781
-1.59239
-0.00662878
4.13205
-0.0155634
6.80714
-0.0238774
8.05696
-0.0444465
9.48631
-0.0681081
10.9756
-0.0945901
12.6836
-0.133366
14.5812
-0.185707
16.6563
-0.257342
18.8754
-0.362813
21.2115
-0.498077
19.7931
-0.651231
15.4729
-0.820637
12.175
-1.00905
9.61303
-1.21297
7.60264
-1.38482
5.9854
-1.44244
4.55875
-1.44338
3.17087
-1.66935
2.33172
1.92159
-1.90314
-0.000706785
4.13276
-0.0096021
6.81603
-0.019642
8.067
-0.0370639
9.50373
-0.0583991
10.9969
-0.0889256
12.7142
-0.12697
14.6193
-0.178874
16.7083
-0.251237
18.9478
-0.360309
21.3206
-0.503844
19.9366
-0.672671
15.6417
-0.869269
12.3716
-1.08037
9.82413
-1.28234
7.80462
-1.42283
6.12589
-1.48184
4.61776
-1.59423
3.28326
-1.8477
2.58518
2.12953
-2.05564
0.00667042
4.12608
-0.0103119
6.83301
-0.0226665
8.07935
-0.0414289
9.5225
-0.0589845
11.0145
-0.0870356
12.7422
-0.124563
14.6568
-0.176322
16.76
-0.249786
19.0212
-0.362563
21.4333
-0.512959
20.087
-0.690273
15.819
-0.89865
12.58
-1.11981
10.0453
-1.33808
8.02289
-1.57066
6.35847
-1.74849
4.79559
-1.95089
3.48566
-2.18037
2.81466
2.27534
-2.32617
0.00748688
4.1186
-0.0070705
6.84757
-0.0222519
8.09453
-0.0438267
9.54407
-0.0626169
11.0333
-0.0886223
12.7682
-0.126539
14.6947
-0.17828
16.8118
-0.253036
19.096
-0.369238
21.5495
-0.525598
20.2433
-0.709682
16.0031
-0.927755
12.7981
-1.17374
10.2913
-1.41406
8.26321
-1.57662
6.52103
-1.71112
4.93009
-1.97933
3.75387
-2.21725
3.05258
2.47796
-2.41988
-0.0030409
4.12164
-0.0112413
6.85577
-0.0179876
8.10128
-0.0367478
9.56283
-0.0582162
11.0547
-0.0886045
12.7986
-0.127112
14.7332
-0.179289
16.8639
-0.25512
19.1718
-0.373941
21.6684
-0.534679
20.4041
-0.718982
16.1874
-0.933153
13.0123
-1.18557
10.5437
-1.4457
8.52334
-1.66727
6.7426
-1.91359
5.17641
-2.32914
4.16943
-2.74718
3.47061
2.7706
-3.03982
0.00495655
4.11668
-0.0090307
6.86976
-0.0215742
8.11382
-0.0407789
9.58204
-0.0596923
11.0737
-0.0900189
12.8289
-0.128096
14.7713
-0.180733
16.9166
-0.256742
19.2478
-0.376418
21.788
-0.540413
20.5681
-0.728568
16.3756
-0.934709
13.2184
-1.1893
10.7983
-1.48846
8.8225
-1.74753
7.00167
-1.9571
5.38598
-2.39823
4.61056
-2.91842
3.9908
2.98537
-3.13319
0.00950889
4.10717
-0.00680669
6.88607
-0.0238601
8.13088
-0.0463687
9.60454
-0.0659409
11.0932
-0.0918088
12.8548
-0.128987
14.8085
-0.180931
16.9685
-0.256128
19.323
-0.37491
21.9068
-0.538748
20.7319
-0.72559
16.5624
-0.931722
13.4245
-1.15252
11.0191
-1.41544
9.08542
-1.71701
7.30324
-2.17904
5.84801
-2.58438
5.0159
-3.13608
4.5425
3.80417
-3.95488
-0.000575149
4.10775
-0.0104877
6.89599
-0.0212028
8.14159
-0.0411631
9.6245
-0.0642354
11.1163
-0.092013
12.8826
-0.128897
14.8454
-0.179351
17.019
-0.250681
19.3944
-0.362136
22.0183
-0.511949
20.8817
-0.681379
16.7318
-0.871651
13.6148
-1.06981
11.2172
-1.26921
9.28482
-1.49853
7.53256
-1.87535
6.22483
-2.10156
5.24212
-1.54766
3.9886
2.25651
0.00145419
4.10629
-0.00793617
6.90538
-0.0197052
8.15336
-0.0395104
9.64431
-0.0621956
11.139
-0.0920027
12.9124
-0.129917
14.8833
-0.182631
17.0717
-0.255467
19.4672
-0.368485
22.1313
-0.516089
21.0293
-0.679277
16.895
-0.858081
13.7936
-1.0346
11.3938
-1.15583
9.40605
-1.21714
7.59387
-1.15808
6.16577
-1.04805
5.13208
-0.729734
3.67028
1.52678
0.0074713
4.09882
-0.0051446
6.91799
-0.0203214
8.16854
-0.0418462
9.66583
-0.0638264
11.161
-0.0914542
12.94
-0.130325
14.9222
-0.183132
17.1245
-0.254864
19.5389
-0.36604
22.2425
-0.509343
21.1726
-0.658351
17.044
-0.809864
13.9451
-0.933524
11.5174
-0.972368
9.4449
-0.953804
7.5753
-0.968404
6.18037
-0.96018
5.12386
-0.819193
3.5293
0.707582
0.00593546
4.09289
-0.00559808
6.92953
-0.0170749
8.18001
-0.0375036
9.68626
-0.0610381
11.1845
-0.0875749
12.9665
-0.128186
14.9628
-0.17866
17.175
-0.247859
19.6081
-0.35438
22.349
-0.486417
21.3047
-0.610385
17.168
-0.708274
14.043
-0.786141
11.5953
-0.8004
9.45916
-0.814086
7.58899
-0.857194
6.22348
-0.809494
5.07616
-0.401833
3.12164
0.305749
0.00672858
4.08616
-0.00357624
6.93983
-0.0132959
8.18973
-0.0325143
9.70548
-0.0558763
11.2079
-0.0807579
12.9914
-0.123447
15.0055
-0.168762
17.2203
-0.23486
19.6742
-0.331414
22.4456
-0.443511
21.4168
-0.531952
17.2564
-0.582307
14.0934
-0.639397
11.6524
-0.671493
9.49125
-0.705367
7.62286
-0.652547
6.17066
-0.463624
4.88723
-0.15199
2.81
0.153759
0.0122486
4.07391
2.86172e-05
6.95205
-0.0100409
8.1998
-0.0281869
9.72363
-0.0489818
11.2287
-0.0708732
13.0133
-0.114178
15.0488
-0.150508
17.2566
-0.213129
19.7368
-0.295966
22.5284
-0.378426
21.4992
-0.432358
17.3104
-0.459569
14.1206
-0.464354
11.6572
-0.462404
9.4893
-0.448802
7.60926
-0.344619
6.06648
-0.145545
4.68816
-0.0156141
2.68007
0.138145
0.0139249
4.05998
0.00317808
6.9628
-0.00327682
8.20626
-0.0214547
9.74181
-0.0367833
11.244
-0.0583395
13.0349
-0.0987099
15.0891
-0.125731
17.2836
-0.184173
19.7953
-0.249602
22.5938
-0.301019
21.5506
-0.324398
17.3337
-0.322696
14.1189
-0.258957
11.5934
-0.193771
9.42412
-0.087031
7.50252
-0.0043299
5.98378
0.114871
4.56896
0.155887
2.63906
0.294032
0.0188921
4.04109
0.0101816
6.97151
0.00721987
8.20922
-0.00844209
9.75747
-0.0145821
11.2501
-0.0416991
13.062
-0.0729262
15.1204
-0.0945261
17.3052
-0.145029
19.8458
-0.191227
22.64
-0.215881
21.5753
-0.208781
17.3266
-0.166106
14.0762
-0.0646325
11.4919
0.0451591
9.31432
0.168379
7.3793
0.325247
5.82691
0.396695
4.49751
0.297639
2.73811
0.591672
0.0227973
4.0183
0.0208423
6.97346
0.0221244
8.20794
0.00589345
9.7737
0.00661313
11.2494
-0.0232327
13.0918
-0.032549
15.1297
-0.0584427
17.3311
-0.0969682
19.8843
-0.124029
22.6671
-0.126144
21.5774
-0.0869273
17.2874
-0.00478591
13.9941
0.11698
11.3702
0.227317
9.20399
0.314372
7.29224
0.395022
5.74626
0.458628
4.4339
0.334135
2.8626
0.925807
0.033056
3.98524
0.0355594
6.97096
0.0381165
8.20538
0.0280606
9.78375
0.0315066
11.246
0.0063046
13.117
0.0166797
15.1193
-0.0182073
17.366
-0.0371011
19.9032
-0.0484404
22.6784
-0.0333701
21.5623
0.0224922
17.2316
0.114076
13.9025
0.225273
11.259
0.335477
9.09378
0.386494
7.24123
0.411177
5.72158
0.420638
4.42444
0.301134
2.98211
1.22694
0.0377831
3.94746
0.0493648
6.95938
0.060535
8.19421
0.0590998
9.78519
0.0653105
11.2398
0.0590867
13.1233
0.061572
15.1168
0.0459591
17.3816
0.0366733
19.9125
0.0350949
22.68
0.0612395
21.5362
0.124554
17.1682
0.212125
13.8149
0.31499
11.1561
0.409507
8.99926
0.438866
7.21187
0.439682
5.72076
0.40001
4.46411
0.25423
3.12789
1.48117
0.0550702
3.89239
0.0722626
6.94219
0.0892257
8.17725
0.0957139
9.7787
0.111033
11.2244
0.11831
13.116
0.12562
15.1095
0.130015
17.3772
0.129468
19.913
0.137673
22.6718
0.162972
21.5109
0.217953
17.1133
0.299652
13.7332
0.379625
11.0761
0.454213
8.92468
0.4687
7.19738
0.452844
5.73662
0.38041
4.53655
0.218447
3.28985
1.69962
0.0629504
3.82944
0.0936981
6.91144
0.125699
8.14525
0.142734
9.76167
0.170019
11.1972
0.187612
13.0984
0.210755
15.0864
0.225128
17.3629
0.236908
19.9013
0.248036
22.6607
0.27236
21.4866
0.312512
17.0731
0.366708
13.679
0.416125
11.0267
0.470497
8.8703
0.46829
7.19959
0.428284
5.77662
0.34203
4.6228
0.18428
3.4476
1.8839
0.0897594
3.73968
0.12886
6.87234
0.169938
8.10417
0.203144
9.72846
0.246668
11.1536
0.277399
13.0677
0.320123
15.0436
0.341516
17.3415
0.366483
19.8763
0.378407
22.6487
0.388891
21.4761
0.399408
17.0626
0.41102
13.6674
0.422433
11.0153
0.439004
8.85373
0.423061
7.21553
0.372566
5.82712
0.288579
4.70679
0.149721
3.58646
2.03362
0.105957
3.63372
0.168482
6.80981
0.232287
8.04036
0.283918
9.67683
0.343687
11.0939
0.389703
13.0216
0.451472
14.9819
0.487133
17.3058
0.522898
19.8405
0.530125
22.6415
0.514931
21.4913
0.492014
17.0855
0.469327
13.6901
0.445671
11.039
0.409505
8.8899
0.379515
7.24552
0.318916
5.88772
0.237718
4.78799
0.105001
3.71918
2.13862
0.144092
3.48963
0.226514
6.72739
0.306775
7.9601
0.383638
9.59997
0.467455
11.01
0.544493
12.9446
0.624021
14.9024
0.679022
17.2508
0.721617
19.7979
0.719455
22.6437
0.678137
21.5326
0.620081
17.1436
0.559796
13.7504
0.491788
11.107
0.395164
8.98652
0.33498
7.3057
0.260403
5.9623
0.187325
4.86106
0.0700332
3.83647
2.20865
0.178825
3.3108
0.30492
6.6013
0.41846
7.84656
0.529884
9.48854
0.636733
10.9032
0.742284
12.8391
0.841161
14.8035
0.919426
17.1725
0.970514
19.7468
0.962806
22.6514
0.89899
21.5964
0.803846
17.2387
0.701231
13.853
0.592728
11.2155
0.456562
9.12269
0.363274
7.39899
0.263217
6.06235
0.177957
4.94632
0.0647842
3.94964
2.27344
0.250746
3.06006
0.423385
6.42866
0.573532
7.69641
0.726416
9.33566
0.864243
10.7654
1.01183
12.6915
1.14114
14.6742
1.24497
17.0687
1.30584
19.686
1.29487
22.6623
1.20433
21.687
1.0662
17.3768
0.909515
14.0097
0.749021
11.376
0.572352
9.29936
0.42369
7.54765
0.293967
6.19208
0.181236
5.05906
0.0729997
4.05788
2.34644
0.354955
2.7051
0.612841
6.17077
0.807523
7.50173
1.0104
9.13278
1.18025
10.5955
1.3656
12.5061
1.53121
14.5086
1.66756
16.9324
1.74598
19.6075
1.73993
22.6684
1.63092
21.796
1.45804
17.5497
1.25294
14.2148
1.04456
11.5844
0.836756
9.50717
0.636302
7.74811
0.455947
6.37243
0.289943
5.22506
0.13516
4.21266
2.4816
0.509216
2.19588
0.89617
5.78382
1.15999
7.23791
1.41313
8.87964
1.62592
10.3827
1.86288
12.2692
2.07314
14.2983
2.24463
16.7609
2.35322
19.499
2.37144
22.6502
2.26052
21.9069
2.06576
17.7445
1.82266
14.4579
1.56132
11.8457
1.2953
9.77319
1.01201
8.0314
0.740532
6.64391
0.486002
5.47959
0.24733
4.45133
2.72893
0.436712
1.75917
0.818652
5.40188
1.09075
6.96581
1.36762
8.60277
1.60205
10.1483
1.81061
12.0606
1.95517
14.1537
2.05382
16.6622
2.0721
19.4807
1.98648
22.7358
1.80145
22.0919
1.58301
17.9629
1.35376
14.6871
1.13091
12.0685
0.92205
9.98205
0.719574
8.23387
0.53132
6.83217
0.361718
5.64919
0.183592
4.62946
2.91252
0.087677
1.6715
0.253634
5.23592
0.490422
6.72902
0.765518
8.32768
0.989711
9.9241
1.18442
11.8659
1.36354
13.9746
1.51511
16.5106
1.58822
19.4076
1.55121
22.7728
1.41105
22.2321
1.22772
18.1462
1.02695
14.8879
0.830296
12.2652
0.651929
10.1604
0.476446
8.40936
0.323334
6.98528
0.18441
5.78812
0.0759525
4.73791
2.98847
-0.068462
1.73996
0.0365175
5.13094
0.172169
6.59337
0.365285
8.13456
0.540048
9.74934
0.746717
11.6592
0.94135
13.78
1.09895
16.353
1.18845
19.3181
1.18899
22.7723
1.09148
22.3296
0.943999
18.2937
0.77736
15.0545
0.611406
12.4312
0.464032
10.3078
0.327161
8.54623
0.210692
7.10175
0.11144
5.88737
0.0375209
4.81183
3.02599
-0.144303
1.88426
-0.0551753
5.04181
0.0442902
6.49391
0.169472
8.00938
0.309406
9.6094
0.480696
11.4879
0.646549
13.6141
0.790233
16.2094
0.879829
19.2285
0.90044
22.7517
0.835881
22.3941
0.722049
18.4076
0.589351
15.1872
0.456708
12.5638
0.342723
10.4218
0.242242
8.64671
0.158457
7.18553
0.086797
5.95903
0.0220842
4.87655
3.04808
-0.200907
2.08517
-0.13033
4.97124
-0.0252514
6.38883
0.102434
7.8817
0.216069
9.49577
0.356004
11.348
0.467691
13.5024
0.571023
16.106
0.651085
19.1484
0.682495
22.7203
0.639596
22.437
0.553503
18.4937
0.453271
15.2875
0.354463
12.6626
0.268934
10.5073
0.189818
8.72582
0.11631
7.25904
0.048267
6.02707
-0.00651637
4.93133
3.04156
-0.169322
2.25449
-0.146459
4.94837
-0.0719737
6.31434
0.0392228
7.7705
0.14444
9.39055
0.261168
11.2313
0.347619
13.416
0.423922
16.0297
0.490796
19.0815
0.520846
22.6902
0.492301
22.4656
0.430022
18.5559
0.356652
15.3608
0.280801
12.7385
0.208621
10.5795
0.139376
8.79507
0.0728404
7.32557
0.0117268
6.08818
-0.0269035
4.96996
3.01466
-0.1246
2.37909
-0.126921
4.9507
-0.0898199
6.27724
-0.0145392
7.69522
0.0723928
9.30362
0.169204
11.1345
0.240398
13.3448
0.321898
15.9482
0.382179
19.0213
0.406139
22.6662
0.385406
22.4863
0.338035
18.6033
0.279098
15.4198
0.214767
12.8028
0.150623
10.6436
0.0908485
8.85484
0.0384443
7.37798
-0.00840021
6.13503
-0.0324338
4.99399
2.98222
-0.0898633
2.46895
-0.0968882
4.95772
-0.0793539
6.25971
-0.0394485
7.65531
0.0212731
9.2429
0.0921986
11.0635
0.164008
13.273
0.241336
15.8709
0.296316
18.9663
0.318046
22.6445
0.301797
22.5026
0.261407
18.6437
0.209938
15.4712
0.155113
12.8576
0.102265
10.6965
0.0550551
8.90205
0.0171094
7.41592
-0.0164998
6.16864
-0.0319967
5.00949
2.95023
-0.0686373
2.53759
-0.0774953
4.96658
-0.0674861
6.2497
-0.0449133
7.63274
-0.00128911
9.19927
0.0484809
11.0138
0.110191
13.2113
0.172105
15.809
0.218698
18.9197
0.241194
22.622
0.230072
22.5137
0.196391
18.6774
0.153746
15.5139
0.110648
12.9007
0.0708046