/*--------------------------------*- C++ -*----------------------------------*\
| =========                 |                                                 |
| \\      /  F ield         | OpenFOAM: The Open Source CFD Toolbox           |
|  \\    /   O peration     | Version:  2412                                  |
|   \\  /    A nd           | Website:  www.openfoam.com                      |
|    \\/     M anipulation  |                                                 |
\*---------------------------------------------------------------------------*/
FoamFile
{
    version     2.0;
    format      ascii;
    arch        "LSB;label=32;scalar=64";
    class       volVectorField;
    location    "2.5";
    object      U;
}
// * * * * * * * * * * * * * * * * * * * * * * * * * * * * * * * * * * * * * //

dimensions      [0 1 -1 0 0 0 0];

internalField   nonuniform List<vector> 
2200
(
(0.360217 0.00436816 0)
(1.17916 -0.00563133 0)
(2.11669 -0.000267599 0)
(3.16775 0.00067477 0)
(4.32609 0.00274006 0)
(5.57227 0.00404053 0)
(6.86479 0.00383839 0)
(8.11985 0.00335702 0)
(9.20552 0.00298398 0)
(9.9007 0.00219491 0)
(9.90021 0.000142719 0)
(9.20599 -0.00158856 0)
(8.11979 -0.0021072 0)
(6.8645 -0.0029028 0)
(5.57239 -0.00265356 0)
(4.3257 -0.00198535 0)
(3.16758 -0.000328786 0)
(2.11655 0.00103639 0)
(1.17871 0.00623808 0)
(0.359426 -0.0043582 0)
(0.377123 0.0129673 0)
(1.16316 0.0114416 0)
(2.11418 0.00755367 0)
(3.16147 0.010683 0)
(4.32228 0.011673 0)
(5.56882 0.0146876 0)
(6.85897 0.0173364 0)
(8.11856 0.0172746 0)
(9.20402 0.0164228 0)
(9.89531 0.0100591 0)
(9.89484 -0.00206827 0)
(9.20248 -0.0104283 0)
(8.11797 -0.0124578 0)
(6.85894 -0.0124401 0)
(5.56804 -0.0110086 0)
(4.32144 -0.00905944 0)
(3.16073 -0.00859509 0)
(2.11195 -0.00673851 0)
(1.16077 -0.0107746 0)
(0.37539 -0.0128294 0)
(0.446819 0.0198526 0)
(1.17379 0.0396934 0)
(2.12418 0.0282646 0)
(3.16311 0.0321057 0)
(4.31882 0.0346806 0)
(5.56787 0.0294768 0)
(6.85274 0.0309781 0)
(8.10299 0.0297577 0)
(9.18744 0.0254684 0)
(9.87917 0.0144916 0)
(9.88029 -0.00301124 0)
(9.18728 -0.0153165 0)
(8.10293 -0.0213373 0)
(6.85113 -0.0237547 0)
(5.56513 -0.0241728 0)
(4.31623 -0.0294333 0)
(3.15956 -0.0291089 0)
(2.12051 -0.0259978 0)
(1.16983 -0.0391116 0)
(0.442864 -0.0196001 0)
(0.576953 0.0189701 0)
(1.21519 0.0610323 0)
(2.11801 0.061008 0)
(3.19172 0.0540037 0)
(4.33012 0.065847 0)
(5.56738 0.0626964 0)
(6.85656 0.0567841 0)
(8.10093 0.0491256 0)
(9.17783 0.0378319 0)
(9.85996 0.0166603 0)
(9.86073 -0.00261168 0)
(9.1752 -0.0239886 0)
(8.09722 -0.0361284 0)
(6.85169 -0.0467 0)
(5.56198 -0.0548544 0)
(4.32442 -0.0596272 0)
(3.18548 -0.0485432 0)
(2.10963 -0.0583964 0)
(1.20813 -0.0592106 0)
(0.572842 -0.0182725 0)
(0.72454 0.0132616 0)
(1.32101 0.07037 0)
(2.10485 0.087819 0)
(3.20709 0.0681672 0)
(4.37404 0.0828113 0)
(5.5834 0.102823 0)
(6.85247 0.0938102 0)
(8.0873 0.080238 0)
(9.15838 0.0602713 0)
(9.83323 0.0287854 0)
(9.83311 -0.0103749 0)
(9.15321 -0.0435684 0)
(8.08098 -0.0662006 0)
(6.84414 -0.0815543 0)
(5.57435 -0.0919094 0)
(4.3631 -0.0743688 0)
(3.19257 -0.0628383 0)
(2.09172 -0.0847064 0)
(1.30902 -0.0687987 0)
(0.710737 -0.0130881 0)
(0.875425 0.01524 0)
(1.49726 0.0794007 0)
(2.11223 0.126239 0)
(3.20952 0.102397 0)
(4.4361 0.112375 0)
(5.64341 0.1369 0)
(6.88332 0.137392 0)
(8.09668 0.115622 0)
(9.14484 0.0852171 0)
(9.80102 0.0409239 0)
(9.80077 -0.0182562 0)
(9.13672 -0.063799 0)
(8.08656 -0.0967926 0)
(6.87072 -0.122336 0)
(5.62799 -0.124963 0)
(4.41803 -0.10477 0)
(3.19208 -0.0978737 0)
(2.0949 -0.124063 0)
(1.48293 -0.0790649 0)
(0.866596 -0.0149825 0)
(1.05688 0.0271862 0)
(1.69676 0.0959971 0)
(2.17427 0.178249 0)
(3.21087 0.193814 0)
(4.44794 0.172197 0)
(5.66778 0.169511 0)
(6.90153 0.190183 0)
(8.10372 0.169344 0)
(9.14625 0.125314 0)
(9.77514 0.056583 0)
(9.77398 -0.0296852 0)
(9.13277 -0.101298 0)
(8.08733 -0.146598 0)
(6.8817 -0.172862 0)
(5.64501 -0.157264 0)
(4.42355 -0.163158 0)
(3.18526 -0.188133 0)
(2.15089 -0.174538 0)
(1.67621 -0.09302 0)
(1.03927 -0.0263397 0)
(1.30593 0.0405375 0)
(1.95452 0.113491 0)
(2.3443 0.236263 0)
(3.23284 0.288356 0)
(4.40483 0.277916 0)
(5.6545 0.220548 0)
(6.87428 0.22782 0)
(8.05267 0.21867 0)
(9.1067 0.170074 0)
(9.71917 0.081405 0)
(9.71779 -0.0483606 0)
(9.08898 -0.14168 0)
(8.03274 -0.194863 0)
(6.84826 -0.207808 0)
(5.62568 -0.205925 0)
(4.37367 -0.268239 0)
(3.20115 -0.28306 0)
(2.31684 -0.232882 0)
(1.93137 -0.111501 0)
(1.28353 -0.0399494 0)
(1.62058 0.0501659 0)
(2.27923 0.127508 0)
(2.59486 0.276748 0)
(3.31952 0.360389 0)
(4.37133 0.386826 0)
(5.61643 0.333795 0)
(6.82407 0.270856 0)
(7.96422 0.244098 0)
(9.01305 0.186189 0)
(9.61127 0.0961391 0)
(9.6092 -0.057206 0)
(8.99157 -0.150544 0)
(7.93603 -0.214695 0)
(6.79127 -0.247289 0)
(5.57684 -0.317569 0)
(4.3297 -0.376388 0)
(3.28145 -0.354227 0)
(2.56424 -0.272578 0)
(2.25098 -0.125369 0)
(1.59426 -0.0500854 0)
(1.9777 0.0556905 0)
(2.663 0.139457 0)
(2.91496 0.309023 0)
(3.48785 0.420069 0)
(4.39246 0.489589 0)
(5.57204 0.474947 0)
(6.75035 0.389451 0)
(7.88181 0.303745 0)
(8.8536 0.227678 0)
(9.40817 0.109723 0)
(9.40442 -0.0628508 0)
(8.82663 -0.185515 0)
(7.84359 -0.267762 0)
(6.70699 -0.364085 0)
(5.52091 -0.456683 0)
(4.34111 -0.478137 0)
(3.44225 -0.411907 0)
(2.87649 -0.30335 0)
(2.6269 -0.136795 0)
(1.9444 -0.0540801 0)
(2.36409 0.0576628 0)
(3.09677 0.150742 0)
(3.29717 0.336728 0)
(3.73584 0.474509 0)
(4.4823 0.585585 0)
(5.54327 0.606241 0)
(6.66595 0.552819 0)
(7.8084 0.426379 0)
(8.72431 0.31802 0)
(9.218 0.143768 0)
(9.2128 -0.0897391 0)
(8.69317 -0.269751 0)
(7.75911 -0.385555 0)
(6.60681 -0.523618 0)
(5.47988 -0.584271 0)
(4.42055 -0.570514 0)
(3.68129 -0.462591 0)
(3.25036 -0.329322 0)
(3.05395 -0.146877 0)
(2.32112 -0.0548266 0)
(2.76321 0.0546068 0)
(3.5715 0.154226 0)
(3.73511 0.349485 0)
(4.05756 0.504471 0)
(4.64443 0.652872 0)
(5.54181 0.704933 0)
(6.59237 0.675101 0)
(7.71436 0.553811 0)
(8.63215 0.392215 0)
(9.09764 0.185257 0)
(9.08973 -0.120891 0)
(8.59487 -0.331882 0)
(7.651 -0.50669 0)
(6.51432 -0.639622 0)
(5.46998 -0.679857 0)
(4.57489 -0.633345 0)
(3.99524 -0.491386 0)
(3.67925 -0.339127 0)
(3.51981 -0.148818 0)
(2.70615 -0.0511826 0)
(3.15055 0.0463288 0)
(4.06715 0.150051 0)
(4.20424 0.341977 0)
(4.43234 0.508436 0)
(4.8723 0.678725 0)
(5.58547 0.770999 0)
(6.52471 0.761094 0)
(7.55547 0.65695 0)
(8.46394 0.428637 0)
(8.91604 0.21867 0)
(8.90224 -0.138202 0)
(8.41299 -0.356415 0)
(7.47042 -0.599302 0)
(6.42931 -0.713913 0)
(5.49978 -0.737348 0)
(4.78829 -0.653143 0)
(4.3585 -0.489094 0)
(4.1377 -0.328487 0)
(4.00093 -0.140862 0)
(3.06992 -0.0431569 0)
(3.49697 0.0367419 0)
(4.55201 0.134556 0)
(4.68067 0.320541 0)
(4.8353 0.483893 0)
(5.15104 0.665223 0)
(5.6935 0.796972 0)
(6.4805 0.821086 0)
(7.35474 0.740776 0)
(8.19806 0.4724 0)
(8.63255 0.244455 0)
(8.61451 -0.146304 0)
(8.13387 -0.388288 0)
(7.25715 -0.668226 0)
(6.36576 -0.757643 0)
(5.57832 -0.750139 0)
(5.05236 -0.628717 0)
(4.74559 -0.458108 0)
(4.59617 -0.299219 0)
(4.46685 -0.124824 0)
(3.39212 -0.0323862 0)
(3.79423 0.0261372 0)
(5.01345 0.120426 0)
(5.13492 0.285112 0)
(5.23822 0.448169 0)
(5.46052 0.623059 0)
(5.8539 0.774924 0)
(6.47535 0.837244 0)
(7.18881 0.778349 0)
(7.92354 0.531821 0)
(8.33784 0.264695 0)
(8.31468 -0.146932 0)
(7.84068 -0.429239 0)
(7.07404 -0.690485 0)
(6.34387 -0.762112 0)
(5.72221 -0.709537 0)
(5.33885 -0.570052 0)
(5.12365 -0.406085 0)
(5.02414 -0.25762 0)
(4.89045 -0.103409 0)
(3.64869 -0.0166395 0)
(4.03044 0.0189065 0)
(5.41695 0.0951352 0)
(5.55571 0.24451 0)
(5.62319 0.387787 0)
(5.77805 0.553145 0)
(6.05327 0.69996 0)
(6.49486 0.813505 0)
(7.07333 0.756848 0)
(7.68865 0.569275 0)
(8.06943 0.279345 0)
(8.03686 -0.129985 0)
(7.58426 -0.437394 0)
(6.93656 -0.645814 0)
(6.34963 -0.720651 0)
(5.90038 -0.617819 0)
(5.62891 -0.489554 0)
(5.47499 -0.340415 0)
(5.40715 -0.207896 0)
(5.27024 -0.0773921 0)
(3.82473 -0.00444478 0)
(4.21936 0.00942456 0)
(5.78355 0.0824765 0)
(5.91929 0.19847 0)
(5.9642 0.32415 0)
(6.07177 0.467877 0)
(6.26272 0.596803 0)
(6.56858 0.711818 0)
(6.99755 0.697719 0)
(7.48425 0.563407 0)
(7.80925 0.283638 0)
(7.76358 -0.0940455 0)
(7.36009 -0.390707 0)
(6.8318 -0.548087 0)
(6.39192 -0.58169 0)
(6.07588 -0.49058 0)
(5.88375 -0.381516 0)
(5.77659 -0.25962 0)
(5.72855 -0.153322 0)
(5.58063 -0.0497283 0)
(3.9362 0.00229512 0)
(4.351 0.00816953 0)
(6.06008 0.0580128 0)
(6.2202 0.157428 0)
(6.24995 0.261961 0)
(6.32273 0.382437 0)
(6.44983 0.496395 0)
(6.65657 0.60063 0)
(6.95591 0.621235 0)
(7.30998 0.526207 0)
(7.55689 0.284497 0)
(7.50138 -0.0416293 0)
(7.16514 -0.30114 0)
(6.75661 -0.416793 0)
(6.43905 -0.426718 0)
(6.21921 -0.359623 0)
(6.08445 -0.276665 0)
(6.00936 -0.183798 0)
(5.97337 -0.105309 0)
(5.8084 -0.02797 0)
(3.98813 0.00703741 0)
(4.47323 0.00603438 0)
(6.31497 0.0594796 0)
(6.46779 0.133642 0)
(6.48951 0.216537 0)
(6.53351 0.314438 0)
(6.61515 0.412711 0)
(6.74763 0.497873 0)
(6.94531 0.538543 0)
(7.17857 0.473013 0)
(7.34821 0.283789 0)
(7.28459 0.020477 0)
(7.01378 -0.190577 0)
(6.7076 -0.27637 0)
(6.47917 -0.281357 0)
(6.32321 -0.234972 0)
(6.22746 -0.175695 0)
(6.17375 -0.114595 0)
(6.14467 -0.059679 0)
(5.96183 -0.0111336 0)
(3.99637 0.00811157 0)
(4.56979 0.00880775 0)
(6.4892 0.0412032 0)
(6.66575 0.106651 0)
(6.68048 0.181355 0)
(6.70812 0.266246 0)
(6.75804 0.348085 0)
(6.83507 0.424549 0)
(6.95099 0.47184 0)
(7.08903 0.437687 0)
(7.18905 0.299226 0)
(7.11205 0.0957454 0)
(6.89326 -0.0688696 0)
(6.66408 -0.136433 0)
(6.49738 -0.147412 0)
(6.38404 -0.124942 0)
(6.31398 -0.0911738 0)
(6.27544 -0.0559693 0)
(6.25157 -0.0287882 0)
(6.04453 0.00167692 0)
(3.99059 0.00598625 0)
(4.68729 0.0136681 0)
(6.6764 0.0580164 0)
(6.84568 0.109223 0)
(6.8534 0.169852 0)
(6.86374 0.233691 0)
(6.88499 0.315172 0)
(6.92207 0.383173 0)
(6.97417 0.433322 0)
(7.0361 0.433632 0)
(7.07383 0.332096 0)
(6.98358 0.177698 0)
(6.80139 0.0497585 0)
(6.62725 -0.00985476 0)
(6.50174 -0.0317195 0)
(6.41626 -0.0295342 0)
(6.36194 -0.01873 0)
(6.32858 -0.00217211 0)
(6.29735 0.0100696 0)
(6.0565 0.0151087 0)
(3.9653 0.007112 0)
(4.8298 0.0165863 0)
(6.81761 0.0468227 0)
(6.99851 0.103891 0)
(7.00573 0.164625 0)
(7.00283 0.239171 0)
(7.00474 0.310064 0)
(7.00813 0.380141 0)
(7.00737 0.43183 0)
(7.01215 0.454853 0)
(6.98712 0.389202 0)
(6.8833 0.269184 0)
(6.72096 0.167555 0)
(6.57996 0.107576 0)
(6.47775 0.0730034 0)
(6.40761 0.054617 0)
(6.36347 0.043659 0)
(6.33357 0.033682 0)
(6.29339 0.0277925 0)
(6.04259 0.0183613 0)
(3.89726 0.0148189 0)
(4.97135 0.0253949 0)
(7.00073 0.0777439 0)
(7.16942 0.125261 0)
(7.1605 0.193015 0)
(7.14321 0.255605 0)
(7.11989 0.333951 0)
(7.09067 0.411462 0)
(7.04912 0.46493 0)
(7.00543 0.496432 0)
(6.92144 0.468364 0)
(6.79982 0.366915 0)
(6.64676 0.281962 0)
(6.52337 0.215578 0)
(6.43273 0.167617 0)
(6.36959 0.129698 0)
(6.32682 0.0992045 0)
(6.30096 0.0796898 0)
(6.2688 0.0592335 0)
(6.00158 0.0434884 0)
(3.81639 0.0204615 0)
(5.24296 0.0389462 0)
(7.17492 0.0885757 0)
(7.33985 0.16234 0)
(7.32705 0.235304 0)
(7.29106 0.321359 0)
(7.2391 0.407126 0)
(7.17559 0.485916 0)
(7.09709 0.542407 0)
(7.01593 0.578863 0)
(6.87544 0.568905 0)
(6.73055 0.477187 0)
(6.57747 0.399168 0)
(6.45807 0.324678 0)
(6.3686 0.265046 0)
(6.30543 0.214182 0)
(6.26119 0.167759 0)
(6.2305 0.122475 0)
(6.19336 0.0885117 0)
(5.89242 0.0522179 0)
(3.65057 0.0279346 0)
(5.4871 0.062238 0)
(7.42445 0.151056 0)
(7.55621 0.225211 0)
(7.5141 0.329956 0)
(7.44514 0.429854 0)
(7.36212 0.523284 0)
(7.26107 0.608258 0)
(7.14543 0.665705 0)
(7.02916 0.701315 0)
(6.8349 0.688871 0)
(6.66292 0.603074 0)
(6.50278 0.522163 0)
(6.3798 0.4376 0)
(6.28763 0.364268 0)
(6.22065 0.296392 0)
(6.17278 0.237461 0)
(6.13935 0.188477 0)
(6.09694 0.132783 0)
(5.78656 0.0898011 0)
(3.5131 0.0347234 0)
(6.20157 0.133691 0)
(7.70588 0.22886 0)
(7.80657 0.357991 0)
(7.72081 0.494504 0)
(7.61468 0.605972 2.85701e-33)
(7.48652 0.705442 -1.96528e-33)
(7.34256 0.785871 0)
(7.18958 0.837708 0)
(7.03397 0.859101 0)
(6.79138 0.833768 0)
(6.5957 0.746861 0)
(6.42443 0.65409 0)
(6.29276 0.558317 0)
(6.19373 0.474057 0)
(6.11944 0.396333 0)
(6.06278 0.322619 0)
(6.01876 0.252632 0)
(5.95634 0.193672 0)
(5.53754 0.117463 0)
(3.15112 0.0557472 0)
(6.66236 0.28752 -3.24565e-19)
(8.09045 0.391899 2.83355e-19)
(8.06771 0.598263 0)
(7.92293 0.759128 3.39609e-20)
(7.76759 0.867324 -2.73564e-20)
(7.6001 0.950024 2.0842e-33)
(7.41483 1.01944 0)
(7.22643 1.05689 1.94911e-19)
(7.02532 1.05982 -6.98102e-19)
(6.74174 1.01847 1.53187e-19)
(6.51758 0.926804 0)
(6.32475 0.821519 -5.00699e-19)
(6.17572 0.716978 -6.27439e-19)
(6.06081 0.620575 1.10392e-18)
(5.97136 0.532694 -8.88259e-19)
(5.90186 0.455807 0)
(5.84072 0.381427 -3.44046e-19)
(5.73521 0.282561 0)
(5.21411 0.217223 -1.81107e-18)
(2.86053 0.115258 2.1351e-18)
(6.9739 0.628435 -9.39593e-20)
(8.34011 0.802261 -2.08178e-18)
(8.28468 0.977303 5.4487e-19)
(8.09328 1.08799 6.6976e-19)
(7.90425 1.1608 -5.55355e-20)
(7.69308 1.2377 1.28912e-19)
(7.47092 1.29306 0)
(7.24269 1.31829 0)
(6.99436 1.30515 1.11279e-18)
(6.67708 1.24899 0)
(6.4181 1.15139 1.74667e-18)
(6.19734 1.03659 5.45203e-19)
(6.02658 0.928074 1.69931e-20)
(5.89157 0.829492 -1.25723e-18)
(5.78103 0.738804 0)
(5.68927 0.66076 0)
(5.60949 0.60579 -5.94362e-18)
(5.49004 0.553626 1.50911e-17)
(5.01285 0.432617 -8.53142e-18)
(2.73225 0.256353 -1.04571e-17)
(7.12748 0.996445 2.68224e-18)
(8.53144 1.34739 -9.5698e-19)
(8.46038 1.44266 -2.40211e-19)
(8.24697 1.45924 -1.21429e-18)
(8.01251 1.51133 5.54398e-19)
(7.76354 1.56171 -1.85986e-19)
(7.50579 1.59148 2.23694e-19)
(7.23564 1.60114 0)
(6.94879 1.56793 -2.32869e-18)
(6.60648 1.49537 2.55833e-18)
(6.31552 1.38722 -4.77869e-18)
(6.06937 1.26376 2.32732e-18)
(5.87742 1.15317 -1.72044e-18)
(5.72328 1.05845 3.76561e-18)
(5.5957 0.978431 0)
(5.48688 0.903817 -1.48512e-18)
(5.39129 0.841835 0)
(5.2707 0.82535 8.65344e-18)
(4.86082 0.675322 -2.02382e-17)
(2.71129 0.404537 1.30007e-17)
(7.17615 1.23938 -1.29314e-17)
(8.62576 1.91136 6.42313e-18)
(8.57269 1.88272 9.2851e-19)
(8.33677 1.87373 0)
(8.08105 1.89413 5.91709e-19)
(7.80656 1.91041 -6.13512e-19)
(7.51616 1.91283 -2.68382e-19)
(7.21225 1.89932 0)
(6.89503 1.84196 1.64922e-18)
(6.52984 1.75066 -1.75943e-18)
(6.20896 1.62915 4.19846e-18)
(5.93972 1.49916 0)
(5.7292 1.38743 -3.61666e-18)
(5.56074 1.29343 1.99522e-18)
(5.42496 1.21869 5.42812e-18)
(5.31391 1.15382 -4.77017e-18)
(5.21699 1.08058 7.96299e-18)
(5.10385 1.04477 -1.77898e-17)
(4.74011 0.92314 1.13342e-17)
(2.76615 0.539782 -1.44137e-17)
(7.14614 1.57251 8.70369e-18)
(8.65709 2.37853 -7.13014e-18)
(8.63433 2.30723 2.83807e-18)
(8.38458 2.28587 -3.87234e-18)
(8.11308 2.28065 2.50693e-18)
(7.81648 2.26902 -3.56625e-19)
(7.5015 2.2424 1.20818e-19)
(7.17317 2.2015 -1.18878e-18)
(6.83054 2.1195 -1.6803e-18)
(6.44496 2.00988 -3.80389e-18)
(6.09995 1.87406 -9.05939e-18)
(5.81461 1.73583 -3.03212e-18)
(5.59485 1.61966 1.19978e-19)
(5.42246 1.52064 -7.14517e-18)
(5.28748 1.44021 -2.56489e-19)
(5.17958 1.38061 6.97577e-18)
(5.0886 1.3131 -2.16712e-18)
(4.97611 1.25395 -1.28466e-18)
(4.6586 1.15099 0)
(2.81531 0.685039 3.06229e-17)
(7.14016 1.85257 0)
(8.64641 2.85299 1.94675e-18)
(8.64822 2.71302 0)
(8.3861 2.69135 -4.70688e-19)
(8.1026 2.67092 -3.03231e-18)
(7.79392 2.62825 5.40493e-19)
(7.46434 2.57122 1.78307e-19)
(7.11926 2.50152 2.11343e-18)
(6.7561 2.39747 -1.01293e-18)
(6.35506 2.26913 1.68516e-18)
(5.99378 2.11466 4.88688e-18)
(5.69997 1.96396 6.70973e-18)
(5.47761 1.84047 -4.17453e-18)
(5.30532 1.73539 7.72635e-18)
(5.1694 1.64641 -6.19944e-18)
(5.06208 1.58171 0)
(4.97423 1.53876 -1.66099e-17)
(4.87504 1.45519 2.23309e-17)
(4.58642 1.38443 1.70678e-18)
(2.83897 0.818498 -3.22471e-17)
(7.02852 2.11102 -8.75487e-19)
(8.58123 3.21572 -5.70488e-18)
(8.61939 3.0406 -1.52558e-17)
(8.33261 3.07693 8.27239e-18)
(8.04766 3.03878 -1.64544e-18)
(7.73986 2.97306 8.55452e-19)
(7.40671 2.89021 -3.12418e-20)
(7.05139 2.79517 -2.69626e-19)
(6.67354 2.6701 -3.63849e-18)
(6.26337 2.52039 2.52113e-20)
(5.89265 2.34604 -5.30412e-18)
(5.59411 2.18267 -7.10671e-18)
(5.37035 2.05054 4.68897e-18)
(5.19818 1.94152 -2.77046e-18)
(5.06385 1.84927 6.72044e-18)
(4.95631 1.7761 0)
(4.86151 1.74128 -1.02561e-17)
(4.75914 1.64257 1.51731e-17)
(4.49034 1.57493 2.95967e-17)
(2.80769 0.956722 -3.40938e-17)
(6.92141 2.42119 -2.69465e-17)
(8.51813 3.60037 1.31272e-17)
(8.56865 3.38305 9.58624e-18)
(8.24639 3.42632 -8.69879e-18)
(7.96404 3.37163 5.03273e-19)
(7.66429 3.28784 2.12533e-18)
(7.33227 3.19016 -2.72716e-19)
(6.97225 3.07596 -8.58214e-19)
(6.58607 2.93218 -2.26765e-18)
(6.17123 2.76255 3.82808e-18)
(5.79169 2.57028 5.04921e-18)
(5.48527 2.39298 1.11529e-17)
(5.25506 2.24989 0)
(5.07701 2.13339 2.08807e-19)
(4.93429 2.03323 -1.86306e-17)
(4.82509 1.94648 4.26531e-18)
(4.73799 1.92387 2.19343e-17)
(4.66751 1.8273 -6.35445e-18)
(4.41498 1.74599 1.42291e-17)
(2.74996 1.06855 -9.46116e-19)
(6.82881 2.64862 9.75264e-19)
(8.42883 3.96214 1.19592e-17)
(8.47496 3.69772 6.94179e-18)
(8.12944 3.77465 -1.46858e-17)
(7.87163 3.67436 8.9621e-18)
(7.57777 3.57561 -2.53774e-18)
(7.24596 3.46798 2.09157e-19)
(6.88369 3.33997 2.02897e-18)
(6.49222 3.18113 4.04671e-18)
(6.07337 2.99376 -4.88073e-18)
(5.68438 2.78369 0)
(5.37114 2.59146 -4.37822e-18)
(5.13927 2.43606 5.02265e-18)
(4.96535 2.31313 6.76417e-18)
(4.83553 2.21411 -3.87057e-18)
(4.73294 2.12518 -9.82166e-18)
(4.6329 2.09423 -2.98641e-18)
(4.53147 1.97268 -3.95894e-20)
(4.29404 1.89406 0)
(2.69284 1.1542 0)
(6.66226 2.85321 -1.29024e-17)
(8.31224 4.22706 0)
(8.36967 4.00196 7.6711e-18)
(8.0208 4.07761 -3.5887e-18)
(7.77912 3.94985 -8.8588e-18)
(7.48658 3.84303 2.50437e-18)
(7.15247 3.72657 1.32107e-19)
(6.78717 3.58633 -1.11827e-18)
(6.39166 3.41457 2.77874e-18)
(5.97045 3.2115 -1.96756e-18)
(5.57353 2.98653 2.84869e-18)
(5.253 2.78161 1.36331e-17)
(5.01354 2.61523 5.17818e-19)
(4.82809 2.48213 -6.87486e-18)
(4.67906 2.36911 1.3305e-17)
(4.57699 2.25303 1.88227e-19)
(4.49614 2.22769 3.19642e-18)
(4.45408 2.11969 -1.56781e-17)
(4.21788 2.05325 1.61392e-17)
(2.63435 1.22799 -1.69348e-17)
(6.57705 3.10223 4.48806e-21)
(8.20075 4.60967 0)
(8.26343 4.29378 0)
(7.91196 4.36838 3.06533e-18)
(7.68752 4.20502 3.46498e-18)
(7.39231 4.09209 -1.78678e-18)
(7.05362 3.96799 6.91364e-19)
(6.68532 3.81615 0)
(6.28827 3.63273 -4.39067e-18)
(5.86598 3.41675 7.17165e-18)
(5.46174 3.18015 8.58302e-18)
(5.13649 2.96265 -5.12716e-18)
(4.89981 2.78238 -6.41593e-18)
(4.73007 2.63775 1.51459e-17)
(4.61 2.52528 -4.69911e-18)
(4.50876 2.42625 -5.72077e-18)
(4.40173 2.40026 -3.49904e-18)
(4.3088 2.24773 -1.69579e-17)
(4.0729 2.16095 2.24539e-18)
(2.56612 1.29338 1.81112e-17)
(6.42245 3.24523 -5.08552e-18)
(8.0872 4.81377 -6.99613e-18)
(8.1683 4.55757 9.49742e-19)
(7.81218 4.64377 1.03283e-19)
(7.60147 4.44686 9.27889e-19)
(7.2979 4.32903 -4.86604e-18)
(6.95435 4.19548 0)
(6.58365 4.03129 9.22589e-19)
(6.18695 3.83681 -7.26017e-19)
(5.7634 3.61009 1.16044e-17)
(5.35294 3.36381 -2.14545e-18)
(5.022 3.13455 2.36025e-18)
(4.77449 2.94264 0)
(4.57899 2.78824 -8.26313e-18)
(4.42141 2.65939 1.02697e-17)
(4.33043 2.50942 0)
(4.24794 2.4681 -7.71119e-18)
(4.21998 2.3392 2.24988e-17)
(3.9873 2.29141 2.74174e-18)
(2.48984 1.34448 -2.23465e-17)
(6.34202 3.46579 -1.06862e-17)
(7.98297 5.1154 1.30472e-17)
(8.06948 4.81461 0)
(7.7192 4.89516 7.52438e-18)
(7.51362 4.67719 0)
(7.2021 4.55413 4.408e-18)
(6.85578 4.40978 0)
(6.48482 4.23357 0)
(6.09014 4.02878 -1.53021e-18)
(5.66444 3.79304 -1.12337e-17)
(5.24871 3.53958 -1.5975e-17)
(4.91179 3.30165 2.94298e-18)
(4.6633 3.09992 1.09029e-17)
(4.48691 2.93121 9.24027e-18)
(4.36479 2.80043 -3.27662e-17)
(4.26303 2.69442 -1.3617e-17)
(4.15797 2.65425 7.9364e-18)
(4.09474 2.48793 0)
(3.83857 2.36017 2.37733e-17)
(2.40102 1.38727 -2.39349e-17)
(6.2299 3.60381 1.17787e-17)
(7.8821 5.35302 -1.42557e-17)
(7.98007 5.03469 0)
(7.61833 5.13752 -3.83787e-19)
(7.42578 4.89455 -3.0159e-18)
(7.10741 4.7682 0)
(6.75992 4.61229 -9.05902e-20)
(6.39064 4.4241 9.99462e-19)
(5.99812 4.20935 -2.32488e-18)
(5.56931 3.9659 1.24491e-18)
(5.1476 3.70659 0)
(4.80186 3.46011 1.17187e-17)
(4.54009 3.24703 2.92138e-20)
(4.33568 3.06898 4.98688e-18)
(4.17069 2.91699 6.05278e-18)
(4.07621 2.73072 0)
(3.98267 2.67324 -1.34508e-17)
(3.95455 2.509 2.63477e-17)
(3.72861 2.45848 -2.893e-17)
(2.30163 1.40979 5.17219e-17)
(6.13305 3.76104 0)
(7.77067 5.52826 0)
(7.87869 5.25995 -7.20549e-18)
(7.52121 5.35048 0)
(7.33129 5.09482 0)
(7.00864 4.9668 6.04345e-18)
(6.66426 4.80051 -1.51293e-19)
(6.29938 4.60203 5.78177e-19)
(5.90947 4.37873 -3.60534e-19)
(5.47683 4.12896 0)
(5.0512 3.86534 -2.52461e-18)
(4.69981 3.61492 -9.68827e-18)
(4.43248 3.39658 -1.20801e-17)
(4.23333 3.20502 -4.98693e-18)
(4.0984 3.04513 6.61104e-18)
(3.99672 2.92456 -1.55928e-17)
(3.88807 2.84683 2.87275e-17)
(3.85066 2.66399 5.36332e-19)
(3.57206 2.49183 -2.7638e-17)
(2.18921 1.42227 -3.53206e-18)
(6.03848 3.90891 0)
(7.68237 5.80078 -1.03471e-17)
(7.78032 5.44213 8.2462e-18)
(7.41326 5.55116 0)
(7.23725 5.27788 0)
(6.91109 5.14999 -1.32389e-17)
(6.57154 4.9748 0)
(6.21155 4.76759 0)
(5.82297 4.53662 -4.90736e-18)
(5.38755 4.28171 2.15801e-18)
(4.95915 4.01526 -2.08461e-17)
(4.59779 3.76215 0)
(4.3133 3.53803 -1.28704e-17)
(4.08959 3.34007 4.45597e-19)
(3.90821 3.16596 -2.06825e-17)
(3.78816 2.96203 8.46156e-18)
(3.69786 2.85253 2.17918e-19)
(3.67487 2.6601 -3.14489e-17)
(3.43414 2.56618 1.49744e-17)
(2.05967 1.40866 3.76475e-18)
(5.93194 4.02123 0)
(7.55406 5.92036 -1.21155e-17)
(7.67504 5.63779 8.47251e-18)
(7.3138 5.73335 1.63866e-17)
(7.14099 5.44606 3.0154e-18)
(6.81295 5.318 -1.67138e-18)
(6.48029 5.1346 1.1084e-18)
(6.12531 4.92029 8.84273e-19)
(5.73851 4.68312 5.25785e-18)
(5.30222 4.42489 1.47771e-17)
(4.87224 4.15707 1.73288e-17)
(4.50448 3.90513 3.21104e-18)
(4.21321 3.68093 1.87247e-17)
(3.98798 3.4796 1.19297e-17)
(3.82422 3.29669 1.49183e-17)
(3.71104 3.13453 -9.20697e-18)
(3.58602 3.02944 -1.13533e-17)
(3.5408 2.79586 1.35497e-17)
(3.25482 2.55179 -8.312e-18)
(1.91523 1.38131 1.24842e-17)
(5.84537 4.14375 1.7832e-17)
(7.47302 6.12939 1.91645e-17)
(7.58188 5.79758 4.36936e-18)
(7.21538 5.90416 2.35157e-19)
(7.04899 5.60242 -1.08545e-17)
(6.72102 5.47362 3.89212e-18)
(6.39363 5.28256 -1.24651e-18)
(6.0428 5.06187 -3.52754e-19)
(5.65723 4.81921 -6.03356e-18)
(5.22173 4.55846 -1.63022e-17)
(4.79096 4.29014 1.114e-18)
(4.41601 4.04109 0)
(4.11001 3.81953 0)
(3.85591 3.61143 -6.11009e-18)
(3.6426 3.42021 -2.37926e-17)
(3.47964 3.20911 1.97481e-17)
(3.35701 3.03802 1.21918e-17)
(3.33504 2.78927 0)
(3.07616 2.61175 2.67257e-17)
(1.76035 1.32646 -1.4193e-17)
(5.75586 4.25083 -9.08332e-18)
(7.36764 6.29501 7.62103e-18)
(7.48165 5.96201 -1.00741e-17)
(7.11946 6.06368 -1.02867e-17)
(6.95896 5.74748 -4.23584e-18)
(6.63069 5.61713 1.13909e-18)
(6.30923 5.41879 0)
(5.96269 5.19251 -1.0512e-18)
(5.57952 4.94543 6.00911e-19)
(5.14605 4.68316 0)
(4.71452 4.41533 0)
(4.33224 4.17057 2.15095e-18)
(4.01438 3.95344 3.13214e-18)
(3.75481 3.75321 -6.46709e-18)
(3.55302 3.5623 1.71688e-17)
(3.40631 3.37757 -2.11483e-17)
(3.24825 3.23565 -2.63032e-17)
(3.16277 2.93818 2.41285e-17)
(2.81638 2.55715 -9.83272e-18)
(1.54342 1.2764 5.4859e-18)
(5.66228 4.34967 1.05342e-17)
(7.25997 6.40255 0)
(7.38484 6.10073 0)
(7.02298 6.20327 -3.27843e-18)
(6.8743 5.883 2.64275e-18)
(6.54643 5.75046 -3.13824e-19)
(6.23012 5.54552 -3.86356e-18)
(5.88741 5.31401 8.93443e-20)
(5.50625 5.06297 1.03869e-17)
(5.07495 4.79904 -1.29172e-18)
(4.64361 4.53239 2.84856e-18)
(4.25718 4.29406 -1.81528e-17)
(3.9324 4.08771 -1.88855e-17)
(3.64779 3.89133 -3.38158e-18)
(3.3888 3.69931 0)
(3.16025 3.49773 -3.55361e-19)
(2.97083 3.28647 1.35323e-17)
(2.88701 2.96462 -2.6402e-17)
(2.56527 2.60956 2.0093e-17)
(1.26075 1.07847 1.7808e-17)
(5.58645 4.44504 -2.26778e-17)
(7.16163 6.57669 -8.96923e-18)
(7.28577 6.22733 1.69665e-19)
(6.93427 6.33476 4.37637e-18)
(6.7944 6.0073 0)
(6.46314 5.8759 1.04358e-17)
(6.15218 5.6647 4.5265e-18)
(5.81303 5.42889 -6.28967e-19)
(5.43435 5.17487 -5.20463e-18)
(5.00588 4.91026 -1.2486e-18)
(4.5756 4.64637 1.15531e-18)
(4.18449 4.41572 1.58732e-17)
(3.84399 4.21703 1.83393e-17)
(3.54693 4.03496 3.21886e-18)
(3.29995 3.85955 1.70679e-17)
(3.10366 3.67769 0)
(2.88854 3.5202 0)
(2.67787 3.17631 1.71695e-17)
(2.02649 2.51629 2.01974e-19)
(0.760328 1.43273 -1.74738e-17)
(5.52319 4.53545 1.22184e-17)
(7.10362 6.70467 2.66632e-17)
(7.23914 6.38783 -3.84926e-17)
(6.87252 6.47964 2.17299e-17)
(6.71689 6.13107 -2.27013e-18)
(6.38504 5.99724 1.34567e-17)
(6.07712 5.77966 0)
(5.74114 5.54038 4.94098e-19)
(5.36409 5.28432 0)
(4.93836 5.01966 1.58381e-17)
(4.50964 4.75987 -1.58183e-18)
(4.11557 4.53968 1.76863e-18)
(3.77182 4.35821 2.05991e-17)
(3.45797 4.19142 -7.08207e-18)
(3.1538 4.02835 -9.02479e-18)
(2.85459 3.86548 0)
(2.54981 3.67788 0)
(2.24686 3.30005 0)
(1.42399 2.48222 -9.20339e-18)
(0.934068 2.10867 -5.63181e-18)
(5.4583 4.62053 0)
(7.03416 6.82782 0)
(7.14893 6.51046 1.36664e-17)
(6.77996 6.60804 -1.79417e-17)
(6.63629 6.25027 1.14505e-17)
(6.30608 6.11192 -1.22054e-17)
(6.00222 5.88897 -4.05182e-19)
(5.67006 5.64706 3.13759e-19)
(5.29508 5.38991 9.10208e-19)
(4.87326 5.12618 -1.81297e-17)
(4.44701 4.87161 2.70265e-18)
(4.05204 4.66383 1.56276e-17)
(3.69576 4.49766 -2.04435e-17)
(3.36529 4.35337 -2.30959e-17)
(3.06773 4.21687 8.03322e-18)
(2.80393 4.08074 0)
(2.52582 3.91226 1.26743e-17)
(2.10146 3.40386 1.5587e-17)
(1.38446 2.75417 -1.70507e-17)
(0.942236 2.91948 2.24876e-17)
(5.36109 4.68752 0)
(6.88758 6.91508 1.65239e-17)
(7.01528 6.5642 -3.37868e-18)
(6.67026 6.68457 2.22392e-17)
(6.56191 6.35443 -1.20316e-17)
(6.22832 6.21842 0)
(5.9311 5.99355 0)
(5.60217 5.7498 0)
(5.22892 5.49246 3.40963e-18)
(4.81103 5.23005 6.72535e-19)
(4.38809 4.98103 0)
(3.99509 4.78721 -1.54382e-17)
(3.64004 4.64225 0)
(3.30485 4.52184 1.64681e-17)
(2.97572 4.41053 -1.13253e-17)
(2.64598 4.29881 -9.23088e-18)
(2.27566 4.07809 -2.41801e-17)
(1.76373 3.5348 -1.33602e-17)
(1.24369 3.25416 -2.35485e-17)
(1.02574 3.45595 1.72697e-17)
(5.30777 4.77847 -7.53536e-18)
(6.838 7.03346 3.74481e-19)
(6.97397 6.70245 -3.58229e-18)
(6.62837 6.7987 -1.72418e-17)
(6.49496 6.44955 0)
(6.1534 6.32007 0)
(5.86168 6.09277 0)
(5.53525 5.84854 7.92795e-20)
(5.16436 5.5919 -4.4381e-18)
(4.75137 5.33135 0)
(4.33306 5.08844 0)
(3.94361 4.90903 0)
(3.58448 4.78558 0)
(3.24264 4.6962 1.21187e-17)
(2.92285 4.61981 3.10398e-17)
(2.62756 4.51265 9.8742e-18)
(2.31095 4.25652 2.34014e-17)
(1.80595 3.76942 -1.88513e-17)
(1.36446 3.8101 7.85349e-18)
(1.19437 3.93217 0)
(5.2841 4.8545 7.22047e-18)
(6.80501 7.17037 -3.62693e-17)
(6.95834 6.8612 -1.13927e-17)
(6.57468 6.94939 -2.74416e-18)
(6.41922 6.56118 2.69971e-18)
(6.08509 6.42471 -1.7597e-17)
(5.7943 6.19066 1.10178e-18)
(5.47099 5.94584 2.84982e-18)
(5.1022 5.69017 0)
(4.69425 5.43163 -1.13967e-18)
(4.28131 5.19413 1.03751e-18)
(3.89923 5.02847 0)
(3.55299 4.92968 0)
(3.22262 4.86906 -1.51698e-17)
(2.90414 4.81665 2.63183e-18)
(2.58371 4.72037 -9.22069e-18)
(2.13976 4.46463 2.0558e-17)
(1.5451 4.08978 1.77342e-17)
(1.15396 4.20631 -3.25987e-17)
(1.04681 4.24486 1.70755e-17)
(5.20014 4.90344 1.3358e-17)
(6.71133 7.22664 3.36593e-17)
(6.81503 6.90683 1.36448e-17)
(6.4473 7.01904 0)
(6.33982 6.66282 0)
(6.00735 6.52596 1.32509e-17)
(5.72283 6.28975 -6.47444e-18)
(5.40394 6.04368 -2.74423e-18)
(5.03838 5.7889 9.22038e-21)
(4.63726 5.53207 1.29205e-17)
(4.23158 5.29913 -1.86497e-17)
(3.85994 5.14578 0)
(3.52168 5.06897 0)
(3.19875 5.03751 -1.07115e-17)
(2.89512 5.02511 -1.41056e-17)
(2.57365 4.9377 0)
(2.17563 4.60133 -2.91112e-17)
(1.73582 4.37539 -5.3171e-18)
(1.43171 4.70328 3.39553e-17)
(1.19671 4.73179 -1.68257e-17)
(5.09741 4.9721 -2.52757e-17)
(6.56867 7.31084 -1.80383e-17)
(6.70542 6.99069 0)
(6.36614 7.09997 0)
(6.26786 6.75497 0)
(5.92422 6.6258 0)
(5.64983 6.38989 6.79218e-18)
(5.33443 6.1428 -4.04839e-18)
(4.9729 5.88849 0)
(4.57936 5.63276 -1.16533e-17)
(4.18312 5.40357 3.36755e-17)
(3.82575 5.25958 1.43671e-18)
(3.51012 5.20366 2.16287e-18)
(3.21328 5.20278 1.81157e-17)
(2.92028 5.19841 -1.20751e-17)
(2.6027 5.08946 0)
(2.10578 4.84743 9.45565e-18)
(1.64026 4.86873 7.39011e-19)
(1.14122 5.13185 -5.13431e-18)
(0.757398 5.20059 1.02306e-17)
(5.05464 5.06763 1.1953e-17)
(6.5258 7.46703 -1.76219e-17)
(6.67498 7.16383 0)
(6.30698 7.25702 -3.91641e-18)
(6.18156 6.86834 1.44433e-17)
(5.8391 6.73509 0)
(5.57035 6.49112 0)
(5.25913 6.24246 7.43015e-18)
(4.90297 5.98771 -5.59763e-19)
(4.5191 5.73209 1.13639e-17)
(4.13525 5.5061 -1.60213e-17)
(3.79573 5.36925 1.03522e-17)
(3.4992 5.32717 0)
(3.21956 5.34732 -9.88585e-18)
(2.94434 5.37466 6.18211e-18)
(2.61136 5.28846 6.78171e-18)
(2.21896 5.05947 0)
(1.77575 5.17426 4.70614e-18)
(1.31485 5.81198 7.82959e-18)
(1.21509 6.02669 2.34972e-18)
(4.97393 5.14064 -2.24408e-17)
(6.43988 7.57898 2.55045e-17)
(6.55686 7.26576 1.7718e-17)
(6.18559 7.36891 -4.56019e-18)
(6.0808 6.98454 -2.17282e-17)
(5.74635 6.8468 0)
(5.48497 6.59434 5.97807e-18)
(5.18035 6.34249 -3.2079e-18)
(4.8303 6.08639 -1.19581e-19)
(4.45695 5.82989 -9.88159e-18)
(4.08778 5.60619 -7.9387e-19)
(3.76894 5.47405 -1.16117e-17)
(3.49864 5.44043 1.41766e-17)
(3.25246 5.48081 4.4903e-18)
(2.99875 5.51363 -1.04647e-17)
(2.71462 5.39977 1.16987e-17)
(2.33121 5.23867 0)
(1.963 5.79076 0)
(1.75539 6.54459 1.08257e-18)
(0.43726 6.61029 -4.73086e-18)
(4.85318 5.20877 1.07982e-17)
(6.2844 7.67489 2.33919e-17)
(6.41352 7.35279 -1.76024e-17)
(6.06315 7.45452 1.58626e-17)
(5.98135 7.08406 2.10615e-17)
(5.64191 6.95131 0)
(5.39353 6.69609 -6.339e-18)
(5.09537 6.44109 -4.51989e-18)
(4.75291 6.18252 0)
(4.39284 5.92406 0)
(4.04058 5.70082 0)
(3.74449 5.57136 0)
(3.50047 5.54041 -1.61484e-17)
(3.28352 5.58536 -6.10463e-18)
(3.07246 5.63427 0)
(2.79347 5.55978 -5.57796e-18)
(2.60216 5.5561 0)
(2.61501 5.90531 -2.41221e-18)
(2.66958 5.97501 1.27835e-19)
(1.43072 6.03062 1.7339e-18)
(4.7599 5.29804 -2.05479e-17)
(6.16247 7.80462 -1.49003e-17)
(6.31495 7.4988 -1.1007e-17)
(5.96228 7.59216 -1.47915e-17)
(5.87468 7.19956 -9.87283e-18)
(5.53355 7.06276 0)
(5.29722 6.79891 -1.1583e-18)
(5.00556 6.54022 5.72347e-19)
(4.67156 6.27774 -8.34813e-19)
(4.32572 6.01645 0)