/*--------------------------------*- C++ -*----------------------------------*\
| =========                 |                                                 |
| \\      /  F ield         | OpenFOAM: The Open Source CFD Toolbox           |
|  \\    /   O peration     | Version:  2412                                  |
|   \\  /    A nd           | Website:  www.openfoam.com                      |
|    \\/     M anipulation  |                                                 |
\*---------------------------------------------------------------------------*/
FoamFile
{
    version     2.0;
    format      ascii;
    arch        "LSB;label=32;scalar=64";
    class       volScalarField;
    location    "0";
    object      T;
}
// * * * * * * * * * * * * * * * * * * * * * * * * * * * * * * * * * * * * * //

dimensions      [0 0 0 1 0 0 0];

internalField   nonuniform List<scalar> 
16000
(
1.272764245720801e-14
1.28555373036978e-14
1.298469702431515e-14
1.311513392161246e-14
1.324686041571952e-14
1.337988904544662e-14
1.35142324693978e-14
1.364990346709386e-14
1.378691494010703e-14
1.392527991320466e-14
1.406501153550409e-14
1.420612308163774e-14
1.434862795293024e-14
1.449253967858361e-14
1.463787191687693e-14
1.478463845637368e-14
1.493285321714222e-14
1.508253025198709e-14
1.523368374769116e-14
1.538632802626905e-14
1.554047754623344e-14
1.569614690387064e-14
1.585335083453071e-14
1.601210421392652e-14
1.617242205944699e-14
1.633431953148123e-14
1.649781193475488e-14
1.66629147196791e-14
1.682964348371201e-14
1.69980139727314e-14
1.716804208242219e-14
1.733974385967397e-14
1.75131355039932e-14
1.768823336892887e-14
1.786505396350815e-14
1.804361395368867e-14
1.822393016382248e-14
1.840601957813247e-14
1.858989934220473e-14
1.87755867644922e-14
1.896309931783312e-14
1.9152454640984e-14
1.934367054016468e-14
1.953676499061954e-14
1.973175613819209e-14
1.992866230091354e-14
2.012750197060684e-14
2.032829381450429e-14
2.053105667688015e-14
2.073580958070005e-14
2.094257172928198e-14
2.115136250797505e-14
2.13622014858535e-14
2.157510841742393e-14
2.179010324435136e-14
2.200720609719777e-14
2.222643729717858e-14
2.244781735793549e-14
2.267136698732277e-14
2.289710708921322e-14
2.312505876531769e-14
2.335524331702321e-14
2.358768224724709e-14
2.382239726230711e-14
2.405941027381024e-14
2.429874340055763e-14
2.454041897046692e-14
2.478445952251237e-14
2.50308878086821e-14
2.527972679595388e-14
2.553099966828888e-14
2.5784729828642e-14
2.604094090099197e-14
2.629965673239078e-14
2.656090139502849e-14
2.682469918832089e-14
2.709107464101172e-14
2.736005251329769e-14
2.763165779897173e-14
2.790591572758414e-14
2.818285176662427e-14
2.846249162372464e-14
2.874486124887902e-14
2.902998683668753e-14
2.931789482861715e-14
2.96086119152834e-14
2.990216503875699e-14
3.019858139488412e-14
3.0497888435634e-14
3.080011387146517e-14
3.110528567371274e-14
3.141343207699895e-14
3.172458158166259e-14
3.203876295621408e-14
3.235600523981132e-14
3.267633774475578e-14
3.2999790059014e-14
3.3326392048762e-14
3.365617386094924e-14
3.398916592589034e-14
3.43253989598767e-14
3.466490396781278e-14
3.500771224587856e-14
3.535385538421079e-14
3.570336526961364e-14
3.605627408829191e-14
3.641261432860694e-14
3.67724187838617e-14
3.71357205551063e-14
3.75025530539721e-14
3.787295000553065e-14
3.824694545117683e-14
3.862457375154011e-14
3.900586958942216e-14
3.939086797275735e-14
3.977960423760515e-14
4.01721140511652e-14
4.056843341482191e-14
4.096859866721552e-14
4.137264648734176e-14
4.1780613897677e-14
4.219253826733573e-14
4.260845731525195e-14
4.302840911339208e-14
4.345243208999588e-14
4.38805650328457e-14
4.431284709256839e-14
4.474931778596055e-14
4.519001699935129e-14
4.563498499199036e-14
4.608426239946581e-14
4.653789023715844e-14
4.699590990371938e-14
4.745836318458456e-14
4.792529225551963e-14
4.839673968619467e-14
4.887274844379215e-14
4.93533618966497e-14
4.983862381793003e-14
5.032857838933082e-14
5.082327020482017e-14
5.132274427441128e-14
5.182704602797127e-14
5.233622131905816e-14
5.285031642879793e-14
5.33693780697958e-14
5.389345339007902e-14
5.442258997707845e-14
5.49568358616438e-14
5.549623952209568e-14
5.604084988831501e-14
5.659071634586638e-14
5.71458887401587e-14
5.770641738064794e-14
5.827235304506928e-14
5.884374698371414e-14
5.942065092374189e-14
6.000311707353026e-14
6.059119812706662e-14
6.11849472683765e-14
6.178441817599153e-14
6.238966502746023e-14
6.300074250389435e-14
6.361770579456149e-14
6.424061060151187e-14
6.486951314425273e-14
6.550447016446246e-14
6.614553893074353e-14
6.679277724342194e-14
6.744624343938932e-14
6.810599639698336e-14
6.877209554092031e-14
6.944460084726e-14
7.012357284842718e-14
7.08090726382699e-14
7.150116187716295e-14
7.219990279716249e-14
7.290535820719932e-14
7.361759149832334e-14
7.43366666489946e-14
7.506264823041792e-14
7.579560141192685e-14
7.653559196641927e-14
7.728268627583268e-14
7.803695133667935e-14
7.879845476561835e-14
7.956726480508639e-14
8.034345032897883e-14
8.112708084837213e-14
8.191822651730587e-14
8.271695813861594e-14
8.352334716981039e-14
8.433746572901194e-14
8.51593866009381e-14
8.598918324294476e-14
8.682692979112189e-14
8.767270106643647e-14
8.852657258093946e-14
8.93886205440231e-14
9.025892186873047e-14
9.113755417812843e-14
9.202459581172928e-14
9.292012583197521e-14
9.38242240307804e-14
9.47369709361234e-14
9.565844781870445e-14
9.658873669866725e-14
9.752792035236153e-14
9.847608231918905e-14
9.94333069084905e-14
1.003996792065042e-13
1.013752850833857e-13
1.023602112002819e-13
1.033545450164767e-13
1.043583747965986e-13
1.053717896178808e-13
1.063948793775063e-13
1.074277347999944e-13
1.084704474446687e-13
1.095231097131903e-13
1.105858148571457e-13
1.116586569857123e-13
1.127417310733922e-13
1.13835132967804e-13
1.149389593975571e-13
1.160533079801828e-13
1.171782772301415e-13
1.183139665669033e-13
1.194604763230945e-13
1.206179077527146e-13
1.217863630394345e-13
1.229659453049583e-13
1.241567586174642e-13
1.253589080001174e-13
1.265724994396581e-13
1.277976398950701e-13
1.29034437306312e-13
1.302830006031479e-13
1.31543439714027e-13
1.328158655750696e-13
1.341003901391128e-13
1.353971263848437e-13
1.367061883260111e-13
1.380276910207184e-13
1.393617505807984e-13
1.407084841812692e-13
1.420680100698778e-13
1.43440447576718e-13
1.448259171239433e-13
1.462245402355593e-13
1.476364395473004e-13
1.490617388166014e-13
1.505005629326469e-13
1.519530379265094e-13
1.53419290981394e-13
1.548994504429384e-13
1.563936458296436e-13
1.579020078433643e-13
1.594246683799003e-13
1.609617605396973e-13
1.625134186386145e-13
1.640797782188028e-13
1.656609760596802e-13
1.67257150188988e-13
1.688684398939673e-13
1.704949857326069e-13
1.721369295450066e-13
1.737944144648421e-13
1.754675849309139e-13
1.77156586698813e-13
1.788615668526852e-13
1.805826738170857e-13
1.823200573689586e-13
1.840738686497023e-13
1.858442601773486e-13
1.876313858588556e-13
1.894354010024839e-13
1.91256462330311e-13
1.930947279908337e-13
1.949503575716895e-13
1.968235121124797e-13
1.987143541177285e-13
2.006230475699153e-13
2.025497579426631e-13
2.044946522140097e-13
2.06457898879812e-13
2.084396679672627e-13
2.10440131048516e-13
2.124594612544559e-13
2.144978332885531e-13
2.165554234408654e-13
2.186324096021506e-13
2.207289712781082e-13
2.22845289603731e-13
2.249815473578068e-13
2.271379289775132e-13
2.293146205731789e-13
2.315118099431262e-13
2.337296865886874e-13
2.359684417293262e-13
2.382282683178923e-13
2.40509361056022e-13
2.428119164096529e-13
2.451361326246882e-13
2.474822097427983e-13
2.498503496173431e-13
2.522407559294475e-13
2.5465363420422e-13
2.57089191827092e-13
2.595476380603127e-13
2.620291840595972e-13
2.645340428908886e-13
2.670624295473048e-13
2.696145609661853e-13
2.721906560463403e-13
2.747909356653966e-13
2.774156226973278e-13
2.800649420301293e-13
2.827391205836394e-13
2.854383873275099e-13
2.881629732993632e-13
2.909131116230555e-13
2.936890375271479e-13
2.96490988363511e-13
2.993192036260844e-13
3.021739249698293e-13
3.05055396229803e-13
3.079638634404344e-13
3.108995748549489e-13
3.138627809649628e-13
3.168537345202435e-13
3.198726905486586e-13
3.229199063762604e-13
3.259956416475959e-13
3.291001583461409e-13
3.322337208149317e-13
3.353965957774021e-13
3.385890523583385e-13
3.418113621050712e-13
3.450637990088347e-13
3.483466395262797e-13
3.516601626012195e-13
3.550046496865354e-13
3.583803847662612e-13
3.617876543779009e-13
3.652267476348811e-13
3.686979562492406e-13
3.722015745545035e-13
3.757378995287304e-13
3.793072308178061e-13
3.829098707588864e-13
3.865461244040724e-13
3.902162995442863e-13
3.939207067333351e-13
3.976596593121981e-13
4.014334734335373e-13
4.052424680863607e-13
4.090869651209801e-13
4.129672892741047e-13
4.168837681941941e-13
4.208367324670412e-13
4.248265156415147e-13
4.28853454255605e-13
4.329178878626078e-13
4.370201590575928e-13
4.41160613504099e-13
4.453395999610002e-13
4.495574703096748e-13
4.538145795813599e-13
4.581112859847573e-13
4.624479509338713e-13
4.668249390760958e-13
4.712426183205126e-13
4.757013598664813e-13
4.802015382324223e-13
4.847435312848717e-13
4.893277202677999e-13
4.93954489832134e-13
4.986242280655791e-13
5.033373265226966e-13
5.080941802551674e-13
5.128951878424252e-13
5.177407514224522e-13
5.226312767228906e-13
5.275671730924292e-13
5.325488535323941e-13
5.375767347286885e-13
5.426512370839605e-13
5.477727847500391e-13
5.529418056606697e-13
5.581587315645382e-13
5.634239980585258e-13
5.687380446213145e-13
5.741013146472174e-13
5.795142554803379e-13
5.849773184490196e-13
5.904909589005491e-13
5.960556362362121e-13
6.016718139466069e-13
6.073399596472554e-13
6.130605451145698e-13
6.188340463220514e-13
6.246609434768517e-13
6.305417210566301e-13
6.3647686784672e-13
6.424668769775909e-13
6.485122459627084e-13
6.546134767365884e-13
6.607710756932991e-13
6.669855537252127e-13
6.732574262621161e-13
6.795872133106525e-13
6.859754394940695e-13
6.924226340923823e-13
6.989293310827565e-13
7.054960691803527e-13
7.12123391879452e-13
7.188118474949353e-13
7.255619892041292e-13
7.323743750890193e-13
7.392495681787683e-13
7.461881364926744e-13
7.53190653083402e-13
7.602576960806531e-13
7.673898487352111e-13
7.745876994632452e-13
7.818518418911765e-13
7.891828749007303e-13
7.965814026745064e-13
8.040480347419073e-13
8.115833860253733e-13
8.191880768871295e-13
8.268627331762561e-13
8.346079862761486e-13
8.424244731524279e-13
8.503128364012301e-13
8.582737242978674e-13
8.663077908460034e-13
8.7441569582711e-13
8.825981048504267e-13
8.908556894033715e-13
8.991891269022543e-13
9.075991007435607e-13
9.160863003555502e-13
9.246514212503672e-13
9.332951650765928e-13
9.42018239672146e-13
9.508213591177344e-13
9.597052437907589e-13
9.686706204195384e-13
9.777182221381905e-13
9.868487885417818e-13
9.960630657420771e-13
1.005361806423724e-12
1.014745769900843e-12
1.024215722174196e-12
1.033772435988789e-12
1.043416690891916e-12
1.053149273291804e-12
1.062970976516611e-12
1.072882600874018e-12
1.082884953711342e-12
1.092978849476011e-12
1.103165109776719e-12
1.113444563445025e-12
1.123818046597406e-12
1.134286402697898e-12
1.144850482621334e-12
1.155511144716913e-12
1.16626925487255e-12
1.177125686579493e-12
1.188081320997773e-12
1.199137047021953e-12
1.21029376134757e-12
1.221552368538125e-12
1.232913781092551e-12
1.244378919513321e-12
1.255948712375142e-12
1.267624096394159e-12
1.279406016497744e-12
1.291295425894972e-12
1.303293286147508e-12
1.315400567241299e-12
1.327618247658649e-12
1.339947314451081e-12
1.352388763312728e-12
1.364943598654275e-12
1.377612833677672e-12
1.390397490451316e-12
1.403298599985956e-12
1.416317202311247e-12
1.429454346552832e-12
1.442711091010181e-12
1.456088503235039e-12
1.469587660110523e-12
1.483209647930854e-12
1.496955562481872e-12
1.510826509122e-12
1.524823602864172e-12
1.538947968458162e-12
1.553200740473794e-12
1.567583063384795e-12
1.582096091653278e-12
1.596740989815043e-12
1.61151893256547e-12
1.626431104846209e-12
1.641478701932626e-12
1.656662929521834e-12
1.671985003821566e-12
1.687446151639832e-12
1.703047610475153e-12
1.718790628607739e-12
1.734676465191278e-12
1.750706390345541e-12
1.766881685249833e-12
1.783203642237025e-12
1.799673564888619e-12
1.816292768130405e-12
1.833062578328971e-12
1.849984333389092e-12
1.867059382851789e-12
1.884289087993282e-12
1.901674821924828e-12
1.919217969693258e-12
1.936919928382372e-12
1.954782107215326e-12
1.972805927657615e-12
1.990992823521111e-12
2.009344241068947e-12
2.027861639121134e-12
2.046546489161196e-12
2.065400275443593e-12
2.084424495102103e-12
2.103620658259112e-12
2.122990288135665e-12
2.142534921162588e-12
2.162256107092531e-12
2.182155409112779e-12
2.202234403959191e-12
2.222494682030873e-12
2.242937847506026e-12
2.263565518458613e-12
2.284379326975962e-12
2.305380919277424e-12
2.326571955834056e-12
2.347954111489084e-12
2.369529075579632e-12
2.391298552059183e-12
2.413264259621358e-12
2.43542793182434e-12
2.457791317216701e-12
2.480356179464049e-12
2.503124297476695e-12
2.526097465538561e-12
2.549277493436945e-12
2.572666206593471e-12
2.59626544619611e-12
2.620077069332283e-12
2.644102949122967e-12
2.668344974858066e-12
2.692805052132824e-12
2.717485102985252e-12
2.742387066034913e-12
2.767512896622636e-12
2.792864566951538e-12
2.818444066229039e-12
2.844253400810207e-12
2.870294594342216e-12
2.896569687909965e-12
2.923080740182915e-12
2.949829827563188e-12
2.976819044334714e-12
3.004050502813854e-12
3.031526333501052e-12
3.059248685233791e-12
3.087219725340829e-12
3.115441639797751e-12
3.143916633383615e-12
3.172646929839157e-12
3.201634772025971e-12
3.230882422087205e-12
3.260392161609686e-12
3.290166291786968e-12
3.320207133584235e-12
3.350517027903997e-12
3.381098335753608e-12
3.411953438414032e-12
3.443084737609772e-12
3.474494655680397e-12
3.506185635753593e-12
3.538160141919152e-12
3.570420659405042e-12
3.602969694754344e-12
3.635809776003895e-12
3.668943452864483e-12
3.702373296902222e-12
3.736101901721659e-12
3.770131883150344e-12
3.804465879424769e-12
3.839106551378003e-12
3.874056582628668e-12
3.909318679771565e-12
3.944895572570019e-12
3.98079001414937e-12
4.01700478119252e-12
4.053542674136709e-12
4.090406517372033e-12
4.127599159441696e-12
4.165123473243711e-12
4.202982356234191e-12
4.241178730632728e-12
4.279715543628767e-12
4.318595767590335e-12
4.357822400273919e-12
4.397398465036452e-12
4.437327011048855e-12
4.477611113511198e-12
4.518253873869853e-12
4.559258420036351e-12
4.600627906607791e-12
4.642365515089305e-12
4.684474454118326e-12
4.726957959690442e-12
4.769819295387335e-12
4.81306175260638e-12
4.856688650792271e-12
4.900703337670518e-12
4.945109189482571e-12
4.989909611223241e-12
5.03510803687979e-12
5.080707929672947e-12
5.126712782300239e-12
5.17312611718057e-12
5.219951486701682e-12
5.26719247346887e-12
5.314852690556106e-12
5.362935781759132e-12
5.411445421850536e-12
5.460385316836847e-12
5.50975920421798e-12
5.559570853248424e-12
5.609824065200697e-12
5.66052267363115e-12
5.711670544647412e-12
5.76327157717858e-12
5.81532970324715e-12
5.867848888243349e-12
5.92083313120164e-12
5.974286465079505e-12
6.028212957038223e-12
6.082616708726576e-12
6.137501856565905e-12
6.192872572038171e-12
6.248733061976281e-12
6.305087568856342e-12
6.361940371092685e-12
6.419295783335024e-12
6.477158156768102e-12
6.535531879414004e-12
6.594421376436168e-12
6.65383111044689e-12
6.713765581816254e-12
6.774229328984249e-12
6.835226928775363e-12
6.896762996715296e-12
6.95884218735039e-12
7.021469194570068e-12
7.08464875193118e-12
7.148385632985302e-12
7.212684651608869e-12
7.277550662335505e-12
7.342988560691227e-12
7.409003283532706e-12
7.475599809387438e-12
7.542783158797561e-12
7.610558394665571e-12
7.678930622603622e-12
7.747904991285001e-12
7.817486692798491e-12
7.887680963006383e-12
7.95849308190403e-12
8.02992837398319e-12
8.101992208598387e-12
8.174690000335405e-12
8.248027209383554e-12
8.322009341910484e-12
8.396641950439908e-12
8.471930634233143e-12
8.547881039672209e-12
8.624498860647547e-12
8.701789838948281e-12
8.779759764654675e-12
8.858414476535669e-12
8.937759862447581e-12
9.017801859737246e-12
9.098546455648318e-12
9.179999687729922e-12
9.262167644249632e-12
9.345056464609237e-12
9.428672339763691e-12
9.51302151264386e-12
9.598110278582138e-12
9.683944985741898e-12
9.770532035550227e-12
9.857877883133753e-12
9.945989037758586e-12
1.003487206327343e-11
1.012453357855587e-11
1.021498025796321e-11
1.030621883178571e-11
1.03982560867042e-11
1.04910988662514e-11
1.058475407127629e-11
1.067922866041262e-11
1.077452965055131e-11
1.087066411731615e-11
1.096763919554366e-11
1.106546207976634e-11
1.116414002470029e-11
1.126368034573661e-11
1.136409041943612e-11
1.146537768402864e-11
1.156754963991632e-11
1.167061385018006e-11
1.17745779410915e-11
1.187944960262715e-11
1.198523658898808e-11
1.209194671912371e-11
1.219958787725851e-11
1.230816801342389e-11
1.241769514399475e-11
1.252817735222871e-11
1.263962278881095e-11
1.275203967240328e-11
1.286543629019659e-11
1.297982099846885e-11
1.309520222314655e-11
1.321158846037171e-11
1.332898827707195e-11
1.344741031153606e-11
1.356686327399441e-11
1.368735594720266e-11
1.380889718703135e-11
1.393149592305976e-11
1.405516115917394e-11
1.417990197416995e-11
1.430572752236247e-11
1.443264703419656e-11
1.456066981686635e-11
1.468980525493634e-11
1.482006281097003e-11
1.495145202616119e-11
1.508398252097163e-11
1.521766399577405e-11
1.535250623149867e-11
1.548851909028593e-11
1.562571251614499e-11
1.576409653561545e-11
1.590368125843596e-11
1.604447687821809e-11
1.6186493673124e-11
1.632974200655094e-11
1.64742323278211e-11
1.661997517287548e-11
1.676698116497516e-11
1.691526101540624e-11
1.706482552419156e-11
1.721568558080826e-11
1.736785216490894e-11
1.75213363470514e-11
1.767614928943184e-11
1.783230224662466e-11
1.798980656632836e-11
1.814867369011663e-11
1.830891515419565e-11
1.847054259016816e-11
1.86335677258015e-11
1.879800238580354e-11
1.896385849260464e-11
1.913114806714377e-11
1.929988322966377e-11
1.94700762005101e-11
1.964173930093737e-11
1.981488495392188e-11
1.998952568498098e-11
2.01656741229976e-11
2.034334300105237e-11
2.05225451572613e-11
2.070329353562198e-11
2.088560118686342e-11
2.106948126930545e-11
2.125494704972252e-11
2.144201190421585e-11
2.16306893190915e-11
2.18209928917462e-11
2.201293633155873e-11
2.220653346078976e-11
2.240179821548755e-11
2.259874464640107e-11
2.279738691990133e-11
2.299773931890761e-11
2.319981624382353e-11
2.340363221347808e-11
2.360920186607552e-11
2.381653996015265e-11
2.402566137554247e-11
2.423658111434588e-11
2.444931430191225e-11
2.466387618782504e-11
2.488028214689714e-11
2.509854768017388e-11
2.531868841594204e-11
2.554072011074948e-11
2.576465865042959e-11
2.599052005113716e-11
2.621832046038896e-11
2.644807615811422e-11
2.667980355771412e-11
2.691351920712674e-11
2.714923978990347e-11
2.738698212629101e-11
2.762676317432363e-11
2.786860003092335e-11
2.811250993300867e-11
2.835851025861131e-11
2.860661852800294e-11
2.88568524048292e-11
2.910922969725334e-11
2.936376835910937e-11
2.962048649106188e-11
2.987940234177796e-11
3.014053430910545e-11
3.040390094126153e-11
3.066952093803138e-11
3.093741315197411e-11
3.120759658963941e-11
3.148009041279416e-11
3.175491393965628e-11
3.203208664614026e-11
3.231162816711229e-11
3.259355829765265e-11
3.287789699433187e-11
3.316466437649265e-11
3.345388072754401e-11
3.374556649626579e-11
3.40397422981215e-11
3.43364289165831e-11
3.463564730446398e-11
3.493741858526408e-11
3.524176405452537e-11
3.554870518119538e-11
3.585826360900526e-11
3.617046115785426e-11
3.648531982520746e-11
3.680286178750389e-11
3.712310940157581e-11
3.744608520607653e-11
3.777181192292375e-11
3.810031245874867e-11
3.843160990636016e-11
3.876572754622005e-11
3.910268884792683e-11
3.944251747171306e-11
3.978523726995551e-11
4.013087228869283e-11
4.047944676915975e-11
4.08309851493285e-11
4.118551206546576e-11
4.154305235370004e-11
4.190363105159983e-11
4.226727339976636e-11
4.2634004843438e-11
4.300385103410386e-11
4.337683783113549e-11
4.375299130342542e-11
4.413233773104253e-11
4.451490360689664e-11
4.490071563841893e-11
4.528980074925396e-11
4.568218608096316e-11
4.607789899474405e-11
4.647696707316191e-11
4.68794181218924e-11
4.728528017148033e-11
4.76945814791118e-11
4.810735053039692e-11
4.852361604116971e-11
4.894340695930097e-11
4.936675246652145e-11
4.979368198026589e-11
5.022422515552303e-11
5.065841188670692e-11
5.109627230953872e-11
5.153783680294189e-11
5.198313599095698e-11
5.243220074466405e-11
5.288506218412497e-11
5.33417516803405e-11
5.380230085721812e-11
5.426674159355802e-11
5.473510602505608e-11
5.520742654631648e-11
5.568373581288503e-11
5.6164066743296e-11
5.664845252113241e-11
5.713692659710687e-11
5.762952269115329e-11
5.812627479453723e-11
5.862721717198329e-11
5.913238436381488e-11
5.964181118811272e-11
6.015553274289306e-11
6.067358440829392e-11
6.119600184878727e-11
6.172282101540155e-11
6.225407814796342e-11
6.278980977735727e-11
6.333005272780186e-11
6.38748441191407e-11
6.442422136915565e-11
6.497822219589374e-11
6.553688462001206e-11
6.610024696714243e-11
6.666834787027265e-11
6.724122627214739e-11
6.781892142768273e-11
6.84014729064064e-11
6.898892059490801e-11
6.958130469931477e-11
7.017866574778498e-11
7.078104459301459e-11
7.138848241476909e-11
7.200102072243483e-11
7.261870135758237e-11
7.324156649655771e-11
7.386965865308869e-11
7.450302068091126e-11
7.514169577641778e-11
7.578572748132091e-11
7.643515968534434e-11
7.709003662892739e-11
7.775040290595264e-11
7.841630346649676e-11
7.908778361959628e-11
7.976488903604142e-11
8.04476657511821e-11
8.113616016776458e-11
8.183041905878409e-11
8.253048957035777e-11
8.323641922462271e-11
8.394825592265743e-11
8.466604794741695e-11
8.53898439666994e-11
8.611969303613169e-11
8.685564460217318e-11
8.759774850515073e-11
8.834605498230742e-11
8.910061467088042e-11
8.98614786112016e-11
9.062869824981759e-11
9.140232544263522e-11
9.218241245809536e-11
9.296901198036111e-11
9.37621771125374e-11
9.456196137991464e-11
9.53684187332299e-11
9.618160355196263e-11
9.700157064764486e-11
9.782837526720448e-11
9.866207309633e-11
9.950272026285846e-11
1.003503733401953e-10
1.012050893507512e-10
1.020669257694113e-10
1.029359405270304e-10
1.03812192013948e-10
1.046957390835359e-10
1.055866410557737e-10
1.064849577208413e-10
1.073907493427494e-10
1.083040766629909e-10
1.092250009042242e-10
1.101535837739752e-10
1.110898874683777e-10
1.120339746759345e-10
1.12985908581312e-10
1.139457528691571e-10
1.149135717279455e-10
1.158894298538639e-10
1.168733924547088e-10
1.178655252538296e-10
1.188658944940863e-10
1.19874566941849e-10
1.208916098910203e-10
1.219170911670883e-10
1.229510791312113e-10
1.239936426843368e-10
1.250448512713403e-10
1.261047748852071e-10
1.271734840712363e-10
1.282510499312803e-10
1.293375441280199e-10
1.304330388892576e-10
1.315376070122608e-10
1.326513218681211e-10
1.337742574061571e-10
1.349064881583481e-10
1.360480892437917e-10
1.371991363732071e-10
1.383597058534666e-10
1.395298745921572e-10
1.407097201021813e-10
1.418993205063897e-10
1.430987545422458e-10
1.443081015665356e-10
1.455274415600928e-10
1.467568551325826e-10
1.479964235273004e-10
1.492462286260176e-10
1.505063529538635e-10
1.517768796842365e-10
1.530578926437549e-10
1.543494763172505e-10
1.556517158527884e-10
1.569646970667291e-10
1.582885064488357e-10
1.596232311674004e-10
1.609689590744271e-10
1.623257787108467e-10
1.636937793117651e-10
1.650730508117543e-10
1.664636838501833e-10
1.678657697765934e-10
1.692794006560997e-10
1.707046692748415e-10
1.72141669145479e-10
1.735904945127156e-10
1.750512403588699e-10
1.765240024094937e-10
1.780088771390172e-10
1.795059617764478e-10
1.810153543111105e-10
1.825371534984215e-10
1.840714588657119e-10
1.856183707180981e-10
1.871779901443791e-10
1.887504190229953e-10
1.90335760028026e-10
1.919341166352275e-10
1.935455931281028e-10
1.95170294604055e-10
1.968083269805463e-10
1.98459797001315e-10
2.001248122426467e-10
2.01803481119687e-10
2.034959128927911e-10
2.05202217673931e-10
2.069225064331526e-10
2.086568910050685e-10
2.104054840953953e-10
2.121683992875677e-10
2.139457510493681e-10
2.157376547396177e-10
2.175442266149169e-10
2.193655838364435e-10
2.212018444767831e-10
2.230531275268182e-10
2.249195529026797e-10
2.26801241452722e-10
2.286983149645759e-10
2.306108961722412e-10
2.325391087632276e-10
2.344830773857547e-10
2.364429276560079e-10
2.384187861654323e-10
2.404107804880936e-10
2.424190391880971e-10
2.444436918270352e-10
2.464848689715259e-10
2.485427022007712e-10
2.506173241141969e-10
2.527088683391346e-10
2.548174695385621e-10
2.569432634188977e-10
2.590863867378704e-10
2.612469773124102e-10
2.634251740266361e-10
2.656211168398732e-10
2.678349467947413e-10
2.700668060253081e-10
2.723168377652759e-10
2.745851863562705e-10
2.76871997256141e-10
2.79177417047365e-10
2.815015934454794e-10
2.838446753075976e-10
2.862068126409783e-10
2.885881566116518e-10
2.90988859553118e-10
2.93409074975106e-10
2.958489575723935e-10
2.983086632336878e-10
3.007883490505875e-10
3.032881733265827e-10
3.058082955861448e-10
3.083488765838772e-10
3.109100783137097e-10
3.134920640182014e-10
3.16094998197866e-10
3.18719046620605e-10
3.213643763311746e-10
3.24031155660743e-10
3.267195542365224e-10
3.294297429914385e-10
3.321618941739014e-10
3.349161813576463e-10
3.37692779451618e-10
3.404918647099529e-10
3.433136147420328e-10
3.461582085225872e-10
3.490258264018978e-10
3.519166501160642e-10
3.548308627973292e-10
3.577686489845177e-10
3.607301946334973e-10
3.637156871277722e-10
3.667253152891024e-10
3.697592693882311e-10
3.728177411556864e-10
3.759009237926454e-10
3.790090119818853e-10
3.821422018988281e-10
3.853006912226324e-10
3.88484679147396e-10
3.916943663934312e-10
3.949299552185992e-10
3.981916494297665e-10
4.014796543943019e-10
4.047941770516866e-10
4.081354259251901e-10
4.115036111336497e-10
4.148989444033138e-10
4.183216390797677e-10
4.217719101399708e-10
4.252499742043683e-10
4.287560495490709e-10
4.322903561181468e-10
4.358531155360025e-10
4.394445511198233e-10
4.430648878921385e-10
4.467143525934599e-10
4.503931736950008e-10
4.541015814115172e-10
4.578398077141977e-10
4.616080863436949e-10
4.654066528232031e-10
4.692357444716587e-10
4.730956004170454e-10
4.76986461609747e-10
4.809085708360406e-10
4.848621727316865e-10
4.88847513795574e-10
4.928648424035039e-10
4.969144088220694e-10
5.009964652225941e-10
5.051112656952273e-10
5.09259066263106e-10
5.134401248966088e-10
5.176547015277423e-10
5.219030580646184e-10
5.261854584060224e-10
5.305021684560793e-10
5.348534561390767e-10
5.392395914143304e-10
5.436608462911859e-10
5.481174948441187e-10
5.526098132279656e-10
5.571380796932187e-10
5.61702574601472e-10
5.663035804409675e-10
5.709413818422235e-10
5.756162655938079e-10
5.803285206582244e-10
5.850784381878748e-10
5.898663115411698e-10
5.94692436298764e-10
5.995571102798432e-10
6.044606335586185e-10
6.094033084808496e-10
6.143854396805503e-10
6.194073340967803e-10
6.244693009905543e-10
6.295716519619046e-10
6.347147009670126e-10
6.398987643355004e-10
6.451241607878574e-10
6.503912114529251e-10
6.55700239885577e-10
6.610515720845008e-10
6.664455365100704e-10
6.718824641024125e-10
6.77362688299529e-10
6.82886545055605e-10
6.884543728594248e-10
6.940665127528906e-10
6.997233083497421e-10
7.054251058543242e-10
7.111722540805476e-10
7.169651044709673e-10
7.228040111159873e-10
7.286893307731971e-10
7.34621422886879e-10
7.406006496076007e-10
7.46627375812e-10
7.527019691226533e-10
7.588247999281362e-10
7.649962414032106e-10
7.712166695291129e-10
7.774864631140676e-10
7.838060038138317e-10
7.901756761525181e-10
7.965958675434671e-10
8.030669683102831e-10
8.09589371708034e-10
8.161634739446338e-10
8.227896742022795e-10
8.294683746591488e-10
8.361999805111745e-10
8.429848999940063e-10
8.498235444051021e-10
8.567163281260214e-10
8.636636686448172e-10
8.706659865786086e-10
8.777237056963593e-10
8.848372529417013e-10
8.920070584560738e-10
8.992335556018594e-10
9.065171809858301e-10
9.138583744826402e-10
9.212575792585679e-10
9.287152417953868e-10
9.362318119143962e-10
9.438077428006248e-10
9.514434910272549e-10
9.591395165801204e-10
9.668962828824527e-10
9.747142568197989e-10
9.825939087650463e-10
9.905357126037039e-10
9.985401457593132e-10
1.006607689219064e-09
1.014738827559526e-09
1.022934048972666e-09
1.031193845291959e-09
1.039518712018702e-09
1.047909148348555e-09
1.056365657198202e-09
1.064888745232237e-09
1.073478922890223e-09
1.082136704413987e-09
1.090862607875005e-09
1.099657155202084e-09
1.108520872209163e-09
1.117454288623336e-09
1.126457938113117e-09
1.135532358316773e-09
1.144678090871014e-09
1.153895681439744e-09
1.163185679743103e-09
1.172548639586705e-09
1.181985118890986e-09
1.191495679720873e-09
1.201080888315641e-09
1.210741315118847e-09
1.220477534808697e-09
1.230290126328393e-09
1.240179672916857e-09
1.250146762139606e-09
1.260191985919807e-09
1.270315940569615e-09
1.280519226821715e-09
1.290802449861009e-09
1.301166219356625e-09
1.311611149494101e-09
1.322137859007751e-09
1.332746971213355e-09
1.343439114040972e-09
1.354214920068041e-09
1.36507502655271e-09
1.37602007546737e-09
1.387050713532397e-09
1.398167592250243e-09
1.409371367939615e-09
1.420662701769964e-09
1.432042259796241e-09
1.443510712993849e-09
1.455068737293808e-09
1.466717013618243e-09
1.478456227916034e-09
1.490287071198818e-09
1.502210239577098e-09
1.514226434296745e-09
1.526336361775606e-09
1.538540733640528e-09
1.550840266764487e-09
1.563235683304069e-09
1.575727710737141e-09
1.588317081900895e-09
1.601004535029973e-09
1.613790813795058e-09
1.62667666734153e-09
1.639662850328605e-09
1.652750122968506e-09
1.665939251066104e-09
1.679231006058738e-09
1.692626165056297e-09
1.706125510881611e-09
1.719729832111151e-09
1.733439923115901e-09
1.747256584102611e-09
1.761180621155329e-09
1.775212846277144e-09
1.789354077432248e-09
1.803605138588392e-09
1.817966859759405e-09
1.83244007704825e-09
1.847025632690199e-09
1.861724375096437e-09
1.876537158897799e-09
1.891464844988961e-09