/*--------------------------------*- C++ -*----------------------------------*\
| =========                 |                                                 |
| \\      /  F ield         | OpenFOAM: The Open Source CFD Toolbox           |
|  \\    /   O peration     | Version:  2412                                  |
|   \\  /    A nd           | Website:  www.openfoam.com                      |
|    \\/     M anipulation  |                                                 |
\*---------------------------------------------------------------------------*/
FoamFile
{
    version     2.0;
    format      ascii;
    arch        "LSB;label=32;scalar=64";
    class       volScalarField;
    location    "0";
    object      T_0;
}
// * * * * * * * * * * * * * * * * * * * * * * * * * * * * * * * * * * * * * //

dimensions      [0 0 0 1 0 0 0];

internalField   nonuniform List<scalar> 
16000
(
1.27289151846549e-14
1.285682261937168e-14
1.298599505066323e-14
1.311644478225206e-14
1.324818423544963e-14
1.338122595025823e-14
1.351558258648575e-14
1.365126692486792e-14
1.378829186820304e-14
1.392667044249639e-14
1.406641579811454e-14
1.420754121095113e-14
1.435006008360351e-14
1.449398594655871e-14
1.463933245939251e-14
1.478611341197743e-14
1.493434272570304e-14
1.508403445470773e-14
1.523520278712017e-14
1.538786204631373e-14
1.554202669217247e-14
1.569771132236716e-14
1.585493067364477e-14
1.601369962312863e-14
1.617403318963075e-14
1.633594653497735e-14
1.649945496534408e-14
1.666457393260574e-14
1.683131903569801e-14
1.699970602198962e-14
1.716975078867073e-14
1.734146938415007e-14
1.751487800946758e-14
1.768999301971953e-14
1.786683092549568e-14
1.804540839433003e-14
1.822574225216599e-14
1.840784948483276e-14
1.859174723953767e-14
1.877745282637e-14
1.896498371981935e-14
1.915435756030933e-14
1.934559215574227e-14
1.953870548306072e-14
1.973371568982224e-14
1.993064109578795e-14
2.012950019452685e-14
2.03303116550334e-14
2.053309432336088e-14
2.073786722426998e-14
2.094464956289081e-14
2.115346072640125e-14
2.136432028572132e-14
2.157724799722076e-14
2.179226380444479e-14
2.20093878398533e-14
2.222864042657721e-14
2.245004208019142e-14
2.267361351050134e-14
2.289937562334919e-14
2.312734952243354e-14
2.335755651114743e-14
2.359001809443273e-14
2.382475598065115e-14
2.406179208347164e-14
2.430114852377756e-14
2.454284763158671e-14
2.478691194799447e-14
2.503336422712879e-14
2.528222743812745e-14
2.553352476713122e-14
2.578727961929543e-14
2.604351562081955e-14
2.630225662099652e-14
2.656352669427838e-14
2.68273501423633e-14
2.709375149629965e-14
2.736275551860918e-14
2.763438720543177e-14
2.790867178868597e-14
2.818563473825182e-14
2.846530176417444e-14
2.874769881888252e-14
2.903285209943384e-14
2.932078804977488e-14
2.961153336302512e-14
2.990511498378088e-14
3.020156011043813e-14
3.050089619753923e-14
3.080315095813997e-14
3.110835236619581e-14
3.141652865897397e-14
3.172770833948355e-14
3.20419201789285e-14
3.235919321918608e-14
3.267955677530178e-14
3.30030404380115e-14
3.332967407628648e-14
3.365948783989673e-14
3.39925121620038e-14
3.432877776177214e-14
3.466831564700582e-14
3.501115711681101e-14
3.535733376427741e-14
3.570687747919012e-14
3.605982045076143e-14
3.641619517038867e-14
3.677603443443797e-14
3.713937134705131e-14
3.750623932297997e-14
3.787667209044485e-14
3.82507036940187e-14
3.8628368497538e-14
3.900970118704077e-14
3.939473677372832e-14
3.978351059695629e-14
4.017605832725118e-14
4.057241596935401e-14
4.097261986529433e-14
4.137670669748628e-14
4.178471349185725e-14
4.21966776210044e-14
4.261263680737536e-14
4.303262912648395e-14
4.34566930101487e-14
4.388486724976442e-14
4.431719099960223e-14
4.475370378013864e-14
4.519444548141417e-14
4.563945636642548e-14
4.608877707454122e-14
4.654244862495747e-14
4.700051242017593e-14
4.746301024951822e-14
4.792998429267162e-14
4.840147712326275e-14
4.887753171246789e-14
4.93581914326547e-14
4.984350006105332e-14
5.033350178346439e-14
5.082824119799823e-14
5.132776331884875e-14
5.183211358009948e-14
5.234133783956525e-14
5.285548238266794e-14
5.337459392634727e-14
5.389871962300415e-14
5.442790706448429e-14
5.49622042860914e-14
5.550165977064218e-14
5.604632245255351e-14
5.659624172196758e-14
5.71514674289131e-14
5.771204988750822e-14
5.827803988019143e-14
5.884948866200267e-14
5.942644796489105e-14
6.000897000206838e-14
6.059710747240127e-14
6.119091356483751e-14
6.179044196287669e-14
6.239574684908086e-14
6.300688290961961e-14
6.362390533886588e-14
6.424686984402166e-14
6.487583264979163e-14
6.551085050310025e-14
6.615198067784341e-14
6.679928097968871e-14
6.745280975091803e-14
6.811262587530884e-14
6.877878878306519e-14
6.945135845578613e-14
7.013039543148602e-14
7.081596080965185e-14
7.150811625635011e-14
7.220692400937995e-14
7.291244688346757e-14
7.362474827550992e-14
7.434389216986933e-14
7.506994314370384e-14
7.58029663723565e-14
7.654302763478809e-14
7.72901933190544e-14
7.804453042784094e-14
7.880610658403744e-14
7.957499003636697e-14
8.035124966506774e-14
8.113495498761774e-14
8.192617616451524e-14
8.272498400511337e-14
8.353144997349742e-14
8.434564619442579e-14
8.516764545931297e-14
8.59975212322716e-14
8.683534765620932e-14
8.768119955897438e-14
8.853515245955915e-14
8.93972825743623e-14
9.026766682349329e-14
9.114638283715317e-14
9.203350896205133e-14
9.292912426789188e-14
9.383330855391624e-14
9.474614235549814e-14
9.566770695079921e-14
9.659808436749029e-14
9.753735738951832e-14
9.84856095639506e-14
9.944292520786192e-14
1.004093894152945e-13
1.013850880642791e-13
1.023701078239093e-13
1.033645361614851e-13
1.043684613497259e-13
1.05381972474028e-13
1.064051594398106e-13
1.074381129799046e-13
1.084809246620188e-13
1.095336868962772e-13
1.105964929428022e-13
1.116694369193877e-13
1.127526138092274e-13
1.138461194687114e-13
1.149500506352986e-13
1.160645049354493e-13
1.171895808926345e-13
1.183253779354157e-13
1.194719964055913e-13
1.206295375664163e-13
1.217981036109025e-13
1.229777976701741e-13
1.241687238219175e-13
1.253709870988924e-13
1.26584693497518e-13
1.278099499865431e-13
1.290468645157814e-13
1.302955460249399e-13
1.315561044525002e-13
1.328286507447036e-13
1.341132968646027e-13
1.354101558011879e-13
1.367193415786036e-13
1.380409692654469e-13
1.393751549841354e-13
1.407220159203653e-13
1.420816703326612e-13
1.434542375619867e-13
1.448398380414678e-13
1.462385933061769e-13
1.476506260030164e-13
1.490760599006897e-13
1.505150198997472e-13
1.519676320427347e-13
1.534340235244289e-13
1.549143227021452e-13
1.564086591061658e-13
1.579171634502315e-13
1.594399676421367e-13
1.609772047944271e-13
1.625290092351703e-13
1.640955165188359e-13
1.656768634372704e-13
1.67273188030755e-13
1.688846295991819e-13
1.705113287133036e-13
1.721534272261008e-13
1.738110682842416e-13
1.754843963396382e-13
1.771735571611069e-13
1.788786978461387e-13
1.805999668327532e-13
1.823375139114819e-13
1.840914902374263e-13
1.858620483424465e-13
1.876493421474527e-13
1.894535269747831e-13
1.912747595607134e-13
1.931131980680718e-13
1.949690020989494e-13
1.96842332707535e-13
1.987333524130662e-13
2.006422252128686e-13
2.025691165955423e-13
2.045141935542379e-13
2.064776246000599e-13
2.084595797755784e-13
2.104602306684727e-13
2.124797504252792e-13
2.14518313765268e-13
2.165760969944294e-13
2.186532780196053e-13
2.207500363627143e-13
2.228665531751148e-13
2.250030112521064e-13
2.271595950475268e-13
2.293364906885076e-13
2.315338859903292e-13
2.337519704714275e-13
2.359909353685288e-13
2.382509736518897e-13
2.405322800407143e-13
2.428350510186638e-13
2.451594848495172e-13
2.475057815929845e-13
2.498741431206234e-13
2.52264773131919e-13
2.54677877170501e-13
2.571136626404863e-13
2.59572338822977e-13
2.62054116892709e-13
2.645592099348094e-13
2.670878329617545e-13
2.696402029304158e-13
2.722165387593037e-13
2.748170613459205e-13
2.774419935842921e-13
2.800915603826489e-13
2.827659886812312e-13
2.854655074702842e-13
2.881903478081991e-13
2.909407428397926e-13
2.937169278147614e-13
2.965191401063054e-13
2.993476192298828e-13
3.022026068621567e-13
3.050843468600846e-13
3.079930852801858e-13
3.109290703979766e-13
3.138925527275525e-13
3.168837850413629e-13
3.199030223901584e-13
3.229505221230768e-13
3.260265439079517e-13
3.291313497517498e-13
3.322652040212126e-13
3.354283734636798e-13
3.386211272280605e-13
3.418437368860167e-13
3.450964764533293e-13
3.483796224114136e-13
3.516934537290675e-13
3.550382518843691e-13
3.584143008867787e-13
3.618218872994506e-13
3.65261300261677e-13
3.687328315116086e-13
3.722367754090925e-13
3.757734289587547e-13
3.793430918332787e-13
3.829460663968472e-13
3.865826577288334e-13
3.902531736476702e-13
3.939579247349121e-13
3.9769722435954e-13
4.014713887024501e-13
4.052807367811439e-13
4.091255904746709e-13
4.130062745487294e-13
4.169231166810294e-13
4.208764474868683e-13
4.248666005448726e-13
4.288939124230537e-13
4.329587227049986e-13
4.370613740163306e-13
4.412022120514025e-13
4.453815856001845e-13
4.495998465754083e-13
4.538573500399615e-13
4.581544542344524e-13
4.624915206050785e-13
4.668689138317146e-13
4.712870018562037e-13
4.757461559109529e-13
4.802467505477165e-13
4.84789163666659e-13
4.893737765456757e-13
4.940009738699135e-13
4.986711437615966e-13
5.033846778101073e-13
5.081419711022541e-13
5.129434222529012e-13
5.177894334357712e-13
5.226804104145665e-13
5.276167625743381e-13
5.32598902953103e-13
5.37627248273772e-13
5.427022189763241e-13
5.478242392502491e-13
5.529937370672698e-13
5.582111442143929e-13
5.634768963271528e-13
5.687914329232178e-13
5.741551974362275e-13
5.795686372499607e-13
5.850322037327718e-13
5.905463522723198e-13
5.961115423106124e-13
6.017282373793054e-13
6.073969051353642e-13
6.131180173969876e-13
6.188920501798319e-13
6.247194837335665e-13
6.306008025787517e-13
6.365364955439775e-13
6.425270558033688e-13
6.485729809143948e-13
6.546747728559896e-13
6.608329380670094e-13
6.670479874849952e-13
6.73320436585325e-13
6.796508054205969e-13
6.860396186604338e-13
6.924874056316147e-13
6.989947003584921e-13
7.055620416038038e-13
7.121899729098435e-13
7.188790426399017e-13
7.256298040201337e-13
7.324428151817991e-13
7.393186392037407e-13
7.462578441553783e-13
7.532610031399303e-13
7.603286943380958e-13
7.674615010520817e-13
7.746600117499421e-13
7.819248201104277e-13
7.89256525068049e-13
7.966557308586431e-13
8.041230470653107e-13
8.116590886646663e-13
8.192644760735583e-13
8.269398351961803e-13
8.346857974715153e-13
8.425029999212406e-13
8.503920851980515e-13
8.583537016343027e-13
8.66388503291178e-13
8.744971500081854e-13
8.826803074531021e-13
8.909386471723707e-13
8.992728466418546e-13
9.076835893181008e-13
9.161715646899524e-13
9.247374683306575e-13
9.333820019504179e-13
9.421058734493184e-13
9.509097969707793e-13
9.597944929554182e-13
9.687606881953663e-13
9.778091158890567e-13
9.869405156964566e-13
9.961556337947773e-13
1.005455222934676e-12
1.014840042496861e-12
1.024310858549252e-12
1.033868443904585e-12
1.043513578178481e-12
1.053247047848057e-12
1.063069646310987e-12
1.072982173945044e-12
1.082985438168237e-12
1.09308025349932e-12
1.103267441618902e-12
1.113547831431084e-12
1.123922259125492e-12
1.134391568239978e-12
1.144956609723804e-12
1.155618242001223e-12
1.166377331035859e-12
1.177234750395345e-12
1.188191381316709e-12
1.199248112772202e-12
1.210405841535713e-12
1.221665472249757e-12
1.233027917492959e-12
1.244494097848186e-12
1.256064941971215e-12
1.267741386659942e-12
1.279524376924216e-12
1.291414866056285e-12
1.303413815701706e-12
1.315522195931018e-12
1.327740985311879e-12
1.340071170981855e-12
1.352513748721882e-12
1.365069723030182e-12
1.377740107197001e-12
1.390525923379784e-12
1.403428202679091e-12
1.416447985215152e-12
1.429586320204957e-12
1.442844266040112e-12
1.456222890365285e-12
1.469723270157313e-12
1.483346491804928e-12
1.497093651189284e-12
1.510965853764968e-12
1.524964214641844e-12
1.539089858667496e-12
1.553343920510359e-12
1.567727544743633e-12
1.582241885929741e-12
1.59688810870565e-12
1.611667387868761e-12
1.626580908463659e-12
1.641629865869457e-12
1.656815465887949e-12
1.672138924832434e-12
1.687601469617359e-12
1.703204337848618e-12
1.718948777914714e-12
1.734836049078511e-12
1.750867421569925e-12
1.767044176679328e-12
1.78336760685162e-12
1.799839015781231e-12
1.816459718507933e-12
1.833231041513173e-12
1.850154322817614e-12
1.867230912079138e-12
1.88446217069182e-12
1.901849471885787e-12
1.919394200827712e-12
1.937097754722304e-12
1.954961542914597e-12
1.97298698699307e-12
1.991175520893565e-12
2.009528591004274e-12
2.0280476562713e-12
2.046734188305342e-12
2.065589671489144e-12
2.084615603085792e-12
2.103813493348142e-12
2.123184865628747e-12
2.142731256491126e-12
2.16245421582173e-12
2.182355306942711e-12
2.20243610672603e-12
2.222698205708016e-12
2.243143208205217e-12
2.263772732431156e-12
2.284588410613914e-12
2.305591889114749e-12
2.326784828547834e-12
2.348168903900738e-12
2.369745804656149e-12
2.391517234914336e-12
2.413484913516925e-12
2.435650574171395e-12
2.458015965576857e-12
2.480582851550735e-12
2.503353011156452e-12
2.526328238832278e-12
2.549510344521245e-12
2.572901153801981e-12
2.596502508020759e-12
2.620316264424691e-12
2.644344296295788e-12
2.668588493086296e-12
2.69305076055522e-12
2.717733020905699e-12
2.742637212923825e-12
2.76776529211834e-12
2.793119230861688e-12
2.818701018532067e-12
2.844512661656746e-12
2.870556184056574e-12
2.896833626991529e-12
2.92334704930768e-12
2.950098527585229e-12
2.977090156287682e-12
3.004324047912499e-12
3.031802333142725e-12
3.059527160999979e-12
3.087500698998737e-12
3.11572513330184e-12
3.144202668877146e-12
3.172935529655832e-12
3.201925958691497e-12
3.231176218320943e-12
3.260688590326257e-12
3.29046537609788e-12
3.320508896799545e-12
3.350821493533967e-12
3.381405527510425e-12
3.412263380213458e-12
3.443397453572861e-12
3.474810170135247e-12
3.506503973237024e-12
3.538481327178528e-12
3.570744717399998e-12
3.603296650658557e-12
3.636139655206886e-12
3.669276280973399e-12
3.702709099743751e-12
3.736440705343738e-12
3.770473713824102e-12
3.804810763646396e-12
3.839454515870555e-12
3.87440765434404e-12
3.909672885892386e-12
3.945252940511575e-12
3.981150571561553e-12
4.017368555961818e-12
4.053909694388096e-12
4.090776811471048e-12
4.127972755996454e-12
4.165500401106826e-12
4.203362644504982e-12
4.241562408659128e-12
4.280102641009458e-12
4.318986314176856e-12
4.35821642617278e-12
4.397796000611224e-12
4.437728086922288e-12
4.478015760567537e-12
4.518662123256828e-12
4.55967030316747e-12
4.601043455164523e-12
4.642784761023361e-12
4.684897429653844e-12
4.727384697326307e-12
4.77024982789943e-12
4.813496113049966e-12
4.857126872504221e-12
4.9011454542717e-12
4.945555234880171e-12
4.990359619613272e-12
5.035562042749334e-12
5.081165967802643e-12
5.127174887766745e-12
5.173592325359043e-12
5.220421833268105e-12
5.267666994402799e-12
5.315331422143041e-12
5.363418760592941e-12
5.411932684836285e-12
5.460876901193246e-12
5.510255147479914e-12
5.560071193269727e-12
5.610328840156624e-12
5.6610319220212e-12
5.712184305298019e-12
5.76378988924566e-12
5.815852606219018e-12
5.868376421943285e-12
5.921365335790875e-12
5.974823381059852e-12
6.028754625255005e-12
6.083163170371382e-12
6.138053153179546e-12
6.193428745513479e-12
6.24929415456114e-12
6.305653623156418e-12
6.362511430074701e-12
6.419871890329457e-12
6.4777393554723e-12
6.536118213895264e-12
6.595012891134728e-12
6.65442785017901e-12
6.714367591777341e-12
6.774836654752066e-12
6.835839616313089e-12
6.897381092374636e-12
6.959465737874975e-12
7.022098247098619e-12
7.085283354000667e-12
7.149025832534254e-12
7.213330496980913e-12
7.278202202282376e-12
7.343645844376368e-12
7.409666360534523e-12
7.476268729702806e-12
7.54345797284527e-12
7.611239153289718e-12
7.679617377077252e-12
7.748597793313394e-12
7.818185594523103e-12
7.888386017008105e-12
7.959204341206833e-12
8.03064589205799e-12
8.102716039366503e-12
8.175420198172427e-12
8.248763829122824e-12
8.322752438847202e-12
8.397391580334756e-12
8.472686853315992e-12
8.548643904646181e-12
8.625268428692781e-12
8.70256616772585e-12
8.780542912310597e-12
8.859204501704853e-12
8.938556824257909e-12
9.018605817813423e-12
9.099357470116136e-12
9.180817819220376e-12
9.262992953902866e-12
9.345889014078942e-12
9.429512191221122e-12
9.513868728782275e-12
9.598964922621006e-12
9.684807121431077e-12
9.771401727174371e-12
9.858755195516905e-12
9.946874036268198e-12
1.003576481382517e-11
1.012543414761794e-11
1.021588871256092e-11
1.030713523950597e-11
1.039918051570011e-11
1.049203138524702e-11
1.058569474957109e-11
1.068017756788632e-11
1.077548685766864e-11
1.087162969513165e-11
1.096861321570626e-11
1.106644461452448e-11
1.116513114690676e-11
1.126468012885341e-11
1.136509893753939e-11
1.146639501181378e-11
1.156857585270312e-11
1.167164902391761e-11
1.177562215236325e-11
1.188050292865641e-11
1.198629910764301e-11
1.209301850892248e-11
1.220066901737479e-11
1.230925858369213e-11
1.241879522491556e-11
1.252928702497431e-11
1.264074213523055e-11
1.275316877502865e-11
1.28665752322475e-11
1.298096986385901e-11
1.309636109648876e-11
1.321275742698392e-11
1.333016742298288e-11
1.344859972349084e-11
1.356806303946067e-11
1.368856615437631e-11
1.381011792484226e-11
1.393272728117798e-11
1.405640322801552e-11
1.418115484490325e-11
1.430699128691412e-11
1.443392178525756e-11
1.456195564789827e-11
1.469110226017777e-11
1.482137108544253e-11
1.495277166567588e-11
1.508531362213571e-11
1.521900665599698e-11
1.535386054899867e-11
1.54898851640969e-11
1.562709044612258e-11
1.576548642244415e-11
1.590508320363558e-11
1.604589098415054e-11
1.618792004300014e-11
1.633118074443762e-11
1.647568353864781e-11
1.662143896244137e-11
1.676845763995623e-11
1.691675028336223e-11
1.706632769357337e-11
1.721720076096465e-11
1.736938046609448e-11
1.752287788043308e-11
1.76777041670969e-11
1.783387058158787e-11
1.799138847253959e-11
1.815026928246816e-11
1.83105245485301e-11
1.847216590328589e-11
1.863520507546839e-11
1.879965389075891e-11
1.896552427256887e-11
1.913282824282649e-11
1.930157792277152e-11
1.947178553375457e-11
1.964346339804343e-11
1.981662393963585e-11
1.999127968507863e-11
2.016744326429257e-11
2.034512741140435e-11
2.052434496558489e-11
2.070510887189473e-11
2.088743218213443e-11
2.107132805570425e-11
2.125680976046749e-11
2.144389067362299e-11
2.163258428258341e-11
2.182290418586101e-11
2.201486409395854e-11
2.220847783027053e-11
2.240375933198724e-11
2.260072265100966e-11
2.279938195486957e-11
2.299975152765633e-11
2.320184577095324e-11
2.340567920477833e-11
2.361126646853443e-11
2.381862232196661e-11
2.402776164612562e-11
2.423869944434001e-11
2.445145084319658e-11
2.466603109352607e-11
2.488245557139879e-11
2.510073977912757e-11
2.532089934627657e-11
2.554295003068149e-11
2.576690771947391e-11
2.599278843011697e-11
2.622060831144626e-11
2.645038364472065e-11
2.668213084468124e-11
2.691586646061706e-11
2.715160717744091e-11
2.738936981677205e-11
2.762917133802824e-11
2.787102883952588e-11
2.811495955958896e-11
2.836098087766611e-11
2.860911031545721e-11
2.885936553804718e-11
2.911176435505048e-11
2.936632472176346e-11
2.962306474032514e-11
2.988200266088843e-11
3.014315688279889e-11
3.040654595578353e-11
3.067218858114937e-11
3.094010361298931e-11
3.121031005939901e-11
3.148282708370394e-11
3.17576740056926e-11
3.203487030286288e-11
3.231443561167693e-11
3.25963897288234e-11
3.288075261249453e-11
3.316754438366678e-11
3.345678532739651e-11
3.374849589412439e-11
3.404269670098682e-11
3.433940853314291e-11
3.463865234510602e-11
3.494044926208988e-11
3.524482058136379e-11
3.555178777361635e-11
3.586137248433343e-11
3.617359653518287e-11
3.648848192541275e-11
3.680605083325874e-11
3.712632561736447e-11
3.744932881820848e-11
3.777508315954867e-11
3.810361154987048e-11
3.843493708385227e-11
3.876908304383974e-11
3.910607290133001e-11
3.944593031847013e-11
3.978867914956569e-11
4.013434344259955e-11
4.048294744076629e-11
4.083451558401351e-11
4.118907251059845e-11
4.154664305865631e-11
4.190725226777818e-11
4.227092538060352e-11
4.263768784442508e-11
4.300756531280283e-11
4.33805836471957e-11
4.375676891859917e-11
4.413614740920257e-11
4.45187456140529e-11
4.49045902427343e-11
4.529370822106267e-11
4.568612669278727e-11
4.608187302131038e-11
4.648097479142007e-11
4.688345981103181e-11
4.728935611294782e-11
4.76986919566298e-11
4.811149582998134e-11
4.852779645114762e-11
4.894762277032884e-11
4.937100397160401e-11
4.979796947477367e-11
5.022854893721242e-11
5.066277225573734e-11
5.11006695684922e-11
5.154227125684249e-11
5.198760794728925e-11
5.24367105133929e-11
5.288961007771517e-11
5.334633801377595e-11
5.380692594802139e-11
5.427140576181148e-11
5.473980959342061e-11
5.521216984005286e-11
5.568851915987301e-11
5.616889047405595e-11
5.66533169688457e-11
5.714183209763688e-11
5.763446958306607e-11
5.813126341912264e-11
5.863224787327698e-11
5.913745748861891e-11
5.964692708601817e-11
6.016069176630093e-11
6.067878691243777e-11
6.120124819175564e-11
6.172811155815876e-11
6.225941325437424e-11
6.279518981420807e-11
6.333547806482391e-11
6.388031512903292e-11
6.44297384276083e-11
6.498378568161154e-11
6.554249491473776e-11
6.610590445568074e-11
6.667405294051373e-11
6.724697931509108e-11
6.782472283746292e-11
6.840732308031518e-11
6.89948199334208e-11
6.958725360611518e-11
7.018466462978931e-11
7.078709386039702e-11
7.139458248098785e-11
7.200717200425649e-11
7.262490427510946e-11
7.324782147325282e-11
7.387596611580203e-11
7.450938105990617e-11
7.514810950539732e-11
7.579219499745518e-11
7.644168142929742e-11
7.709661304488373e-11
7.775703444164523e-11
7.842299057323477e-11
7.909452675229228e-11
7.977168865323935e-11
8.045452231508635e-11
8.114307414426731e-11
8.18373909174947e-11
8.25375197846318e-11
8.324350827159029e-11
8.395540428325259e-11
8.467325610640807e-11
8.539711241271769e-11
8.61270222617024e-11
8.686303510374486e-11
8.760520078312566e-11
8.835356954107286e-11
8.910819201883917e-11
8.986911926080348e-11
9.063640271758974e-11
9.141009424921503e-11
9.219024612826129e-11
9.297691104306506e-11
9.377014210093672e-11
9.456999283140528e-11
9.537651718947883e-11
9.618976955894101e-11
9.700980475566184e-11
9.783667803093842e-11
9.867044507486566e-11
9.95111620197186e-11
1.003588854433757e-10
1.012136723727549e-10
1.020755802872842e-10
1.029446671223952e-10
1.038209912730405e-10
1.047046115972406e-10
1.055955874196585e-10
1.064939785351952e-10
1.073998452126168e-10
1.083132481982117e-10
1.092342487194669e-10
1.101629084887761e-10
1.110992897071781e-10
1.120434550681187e-10
1.129954677612456e-10
1.139553914762246e-10
1.149232904065887e-10
1.15899229253622e-10
1.168832732302564e-10
1.178754880650175e-10
1.188759400059798e-10
1.198846958247695e-10
1.20901822820584e-10
1.219273888242485e-10
1.22961462202299e-10
1.24004111861101e-10
1.250554072509912e-10
1.261154183704561e-10
1.271842157703405e-10
1.282618705580832e-10
1.293484544019945e-10
1.304440395355505e-10
1.315486987617352e-10
1.326625054574011e-10
1.337855335776708e-10
1.349178576603724e-10
1.360595528304982e-10
1.372106948047054e-10
1.383713598958525e-10
1.395416250175542e-10
1.407215676887919e-10
1.419112660385379e-10
1.431107988104265e-10
1.443202453674596e-10
1.455396856967365e-10
1.467692004142341e-10
1.480088707696093e-10
1.492587786510418e-10
1.50519006590121e-10
1.517896377667507e-10
1.530707560141076e-10
1.543624458236314e-10
1.556647923500442e-10
1.56977881416416e-10
1.583017995192681e-10
1.596366338337061e-10
1.609824722185974e-10
1.623394032217866e-10
1.637075160853493e-10
1.650869007508792e-10
1.6647764786482e-10
1.678798487838415e-10
1.692935955802429e-10
1.707189810474004e-10
1.721560987052682e-10
1.736050428058979e-10
1.750659083390118e-10
1.765387910376231e-10
1.780237873836795e-10
1.79520994613763e-10
1.810305107248323e-10
1.825524344799918e-10
1.840868654143215e-10
1.856339038407451e-10
1.871936508559306e-10
1.887662083462443e-10
1.903516789937509e-10
1.919501662822535e-10
1.935617745033663e-10
1.951866087626609e-10
1.968247749858303e-10
1.98476379924909e-10
2.001415311645399e-10
2.018203371282885e-10
2.035129070849937e-10
2.052193511551777e-10
2.069397803174983e-10
2.086743064152474e-10
2.104230421628868e-10
2.12186101152661e-10
2.139635978612295e-10
2.157556476563564e-10
2.175623668036565e-10
2.193838724733886e-10
2.212202827472837e-10
2.230717166254448e-10
2.249382940332897e-10
2.268201358285297e-10
2.28717363808225e-10
2.306301007158757e-10
2.325584702485614e-10
2.345025970641459e-10
2.364626067885322e-10
2.384386260229541e-10
2.404307823513399e-10
2.424392043477339e-10
2.444640215837419e-10
2.465053646360697e-10
2.485633650940827e-10
2.506381555674492e-10
2.527298696938172e-10
2.54838642146562e-10
2.569646086425741e-10
2.591079059501373e-10
2.612686718968119e-10
2.634470453774312e-10
2.65643166362111e-10
2.678571759043472e-10
2.700892161491613e-10
2.723394303412956e-10
2.746079628334949e-10
2.768949590948149e-10
2.792005657190191e-10
2.815249304330217e-10
2.838682021053922e-10
2.86230530754936e-10
2.886120675593142e-10
2.910129648637445e-10
2.934333761897646e-10
2.958734562440464e-10
2.983333609272807e-10
3.008132473431412e-10
3.033132738072842e-10
3.058335998564355e-10
3.083743862575443e-10
3.109357950169857e-10
3.135179893898468e-10
3.161211338892704e-10
3.187453942958809e-10
3.213909376672488e-10
3.240579323474573e-10
3.267465479767253e-10
3.294569555010862e-10
3.321893271821556e-10
3.349438366069706e-10
3.377206586978772e-10
3.405199697225169e-10
3.433419473038721e-10
3.461867704303799e-10
3.490546194661279e-10
3.519456761611246e-10
3.548601236616295e-10
3.577981465205822e-10
3.60759930708079e-10
3.637456636219515e-10
3.667555340983952e-10
3.697897324226998e-10
3.728484503400451e-10
3.759318810663682e-10
3.790402192993193e-10
3.821736612293029e-10
3.853324045505727e-10
3.885166484724312e-10
3.917265937305087e-10
3.949624425981024e-10
3.982243988976239e-10
4.01512668012107e-10
4.048274568968128e-10
4.081689740909109e-10
4.115374297292497e-10
4.149330355542101e-10
4.183560049276376e-10
4.218065528428616e-10
4.252848959368267e-10
4.287912525022607e-10
4.323258424999721e-10
4.358888875712351e-10
4.394806110502276e-10
4.43101237976593e-10
4.467509951080899e-10
4.504301109333003e-10
4.541388156844838e-10
4.578773413504557e-10
4.616459216896324e-10
4.654447922430968e-10
4.692741903478148e-10
4.731343551499211e-10
4.770255276180949e-10
4.809479505570424e-10
4.849018686210838e-10
4.888875283278129e-10
4.92905178071866e-10
4.969550681388162e-10
5.010374507191071e-10
5.051525799221442e-10
5.093007117904694e-10
5.134821043140031e-10
5.176970174444446e-10
5.219457131097363e-10
5.262284552286462e-10
5.305455097254292e-10
5.348971445446456e-10
5.392836296660431e-10
5.437052371195355e-10
5.481622410003302e-10
5.52654917484145e-10
5.57183544842508e-10
5.617484034582009e-10
5.663497758408087e-10
5.709879466423559e-10
5.756632026730671e-10
5.803758329172675e-10
5.851261285493416e-10
5.899143829498392e-10
5.947408917217179e-10
5.996059527066361e-10
6.04509866001434e-10
6.094529339746729e-10
6.144354612833361e-10
6.19457754889617e-10
6.245201240778331e-10
6.296228804714958e-10
6.34766338050435e-10
6.399508131680971e-10
6.451766245689664e-10
6.504440934060544e-10
6.557535432585891e-10
6.611053001497842e-10
6.664996925647191e-10
6.719370514684117e-10
6.774177103239371e-10
6.829420051107329e-10
6.885102743430202e-10
6.941228590883289e-10
6.997801029862144e-10
7.054823522670206e-10
7.112299557708449e-10
7.170232649666355e-10
7.228626339713675e-10
7.287484195693978e-10
7.346809812319796e-10
7.406606811368405e-10
7.466878841879737e-10
7.527629580355268e-10
7.588862730958317e-10
7.650582025716146e-10
7.71279122472277e-10
7.775494116344196e-10
7.838694517423797e-10
7.902396273490617e-10
7.966603258968039e-10
8.031319377384123e-10
8.096548561583822e-10
8.162294773942645e-10
8.228562006581139e-10
8.295354281581631e-10
8.362675651206477e-10
8.430530198117201e-10
8.498922035595625e-10
8.567855307767035e-10
8.637334189823563e-10
8.707362888250609e-10
8.77794564105402e-10
8.849086717988935e-10
8.920790420790476e-10
8.993061083405835e-10
9.065903072228356e-10
9.139320786332634e-10
9.213318657711682e-10
9.287901151516063e-10
9.363072766293944e-10
9.438838034233248e-10
9.515201521405777e-10
9.592167828012453e-10
9.669741588630518e-10
9.747927472463002e-10
9.826730183588752e-10
9.906154461215365e-10
9.986205079933421e-10
1.006688684997237e-09
1.014820461745835e-09
1.023016326467364e-09
1.031276771031868e-09
1.039602290977443e-09
1.047993385536834e-09
1.056450557664069e-09
1.064974314061352e-09
1.073565165206141e-09
1.082223625378421e-09
1.090950212688094e-09
1.099745449102698e-09
1.108609860475152e-09
1.117543976571836e-09
1.126548331100805e-09
1.135623461740176e-09
1.144769910166788e-09
1.153988222084966e-09
1.16327894725556e-09
1.172642639525178e-09
1.18207985685556e-09
1.191591161353236e-09
1.201177119299355e-09
1.21083830117969e-09
1.220575281714939e-09
1.230388639891107e-09
1.240278958990221e-09
1.250246826621235e-09
1.260292834751049e-09
1.270417579735862e-09
1.28062166235272e-09
1.290905687831222e-09
1.301270265885482e-09
1.311716010746376e-09
1.322243541193867e-09
1.332853480589722e-09
1.343546456910305e-09
1.354323102779692e-09
1.365184055503015e-09
1.376129957099969e-09
1.387161454338588e-09
1.398279198769319e-09
1.409483846759196e-09
1.420776059526359e-09
1.432156503174795e-09
1.443625848729281e-09
1.455184772170576e-09
1.466833954470888e-09
1.478574081629552e-09
1.490405844709023e-09
1.502329939870954e-09
1.514347068412777e-09
1.526457936804231e-09
1.538663256724451e-09
1.550963745099057e-09
1.563360124137651e-09
1.575853121371526e-09
1.588443469691641e-09
1.601131907386821e-09
1.613919178182291e-09
1.626806031278387e-09
1.639793221389656e-09
1.652881508784049e-09
1.666071659322554e-09
1.679364444499059e-09
1.692760641480371e-09
1.706261033146648e-09
1.719866408132116e-09
1.7335775608659e-09
1.747395291613321e-09
1.761320406517419e-09
1.775353717640671e-09
1.789496043007107e-09
1.803748206644711e-09
1.818111038628018e-09
1.832585375121071e-09
1.847172058420702e-09
1.86187193700007e-09