/*--------------------------------*- C++ -*----------------------------------*\
| =========                 |                                                 |
| \\      /  F ield         | OpenFOAM: The Open Source CFD Toolbox           |
|  \\    /   O peration     | Version:  2412                                  |
|   \\  /    A nd           | Website:  www.openfoam.com                      |
|    \\/     M anipulation  |                                                 |
\*---------------------------------------------------------------------------*/
FoamFile
{
    version     2.0;
    format      ascii;
    arch        "LSB;label=32;scalar=64";
    class       volScalarField;
    location    "0";
    object      T_0_0_0;
}
// * * * * * * * * * * * * * * * * * * * * * * * * * * * * * * * * * * * * * //

dimensions      [0 0 0 1 0 0 0];

internalField   nonuniform List<scalar> 
16000
(
1.273146101540092e-14
1.2859393630228e-14
1.298859148655893e-14
1.311906689045748e-14
1.325083226559789e-14
1.338390015436768e-14
1.35182832189822e-14
1.365399424260743e-14
1.379104613049436e-14
1.392945191112428e-14
1.406922473736287e-14
1.421037788762616e-14
1.435292476705768e-14
1.449687890871441e-14
1.464225397476634e-14
1.478906375770423e-14
1.493732218156041e-14
1.508704330314104e-14
1.523824131326718e-14
1.539093053803029e-14
1.554512544005732e-14
1.570084061978791e-14
1.585809081676396e-14
1.601689091092944e-14
1.617725592394385e-14
1.63392010205071e-14
1.65027415096956e-14
1.666789284631194e-14
1.683467063224708e-14
1.700309061785247e-14
1.717316870332897e-14
1.734492094012387e-14
1.75183635323444e-14
1.769351283818258e-14
1.787038537135267e-14
1.804899780254251e-14
1.822936696087866e-14
1.841150983540339e-14
1.859544357656677e-14
1.878118549773096e-14
1.89687530766895e-14
1.915816395720016e-14
1.934943595053097e-14
1.954258703702099e-14
1.973763536765654e-14
1.99345992656589e-14
2.013349722808975e-14
2.033434792746867e-14
2.053717021340689e-14
2.074198311425622e-14
2.094880583877109e-14
2.115765777778746e-14
2.136855850591796e-14
2.158152778325856e-14
2.17965855571157e-14
2.201375196374562e-14
2.223304733011048e-14
2.245449217565232e-14
2.267810721407942e-14
2.290391335517349e-14
2.313193170660877e-14
2.336218357579081e-14
2.359469047171203e-14
2.382947410682117e-14
2.406655639891306e-14
2.430595947303461e-14
2.454770566340649e-14
2.479181751536519e-14
2.50383177873195e-14
2.528722945272756e-14
2.553857570209104e-14
2.579237994496574e-14
2.604866581199304e-14
2.630745715694866e-14
2.656877805880924e-14
2.683265282383934e-14
2.709910598769539e-14
2.736816231755117e-14
2.763984681424021e-14
2.791418471441915e-14
2.819120149274985e-14
2.847092286410289e-14
2.875337478577788e-14
2.903858345974775e-14
2.932657533492041e-14
2.961737710942191e-14
2.991101573290182e-14
3.020751840885588e-14
3.050691259697377e-14
3.080922601550537e-14
3.111448664364891e-14
3.142272272396287e-14
3.173396276479537e-14
3.204823554274033e-14
3.236557010511297e-14
3.268599577244848e-14
3.300954214102232e-14
3.33362390853963e-14
3.366611676098275e-14
3.399920560663797e-14
3.43355363472728e-14
3.467513999649181e-14
3.501804785925372e-14
3.536429153455612e-14
3.571390291814527e-14
3.606691420525046e-14
3.642335789334064e-14
3.67832667849105e-14
3.714667399028598e-14
3.751361293045949e-14
3.788411733995063e-14
3.825822126968909e-14
3.863595908992635e-14
3.901736549317472e-14
3.940247549716879e-14
3.979132444785851e-14
4.018394802242421e-14
4.058038223232302e-14
4.09806634263613e-14
4.138482829379258e-14
4.179291386744732e-14
4.220495752688803e-14
4.262099700159172e-14
4.304107037416707e-14
4.346521608359137e-14
4.389347292848485e-14
4.432588007041029e-14
4.476247703720217e-14
4.520330372632648e-14
4.564840040827404e-14
4.609780772997642e-14
4.655156671826113e-14
4.700971878333206e-14
4.747230572228279e-14
4.793936972264474e-14
4.841095336595972e-14
4.888709963139237e-14
4.936785189937186e-14
4.985325395526155e-14
5.034334999307382e-14
5.08381846192023e-14
5.133780285620093e-14
5.184225014659102e-14
5.235157235670123e-14
5.286581578054503e-14
5.338502714373274e-14
5.390925360741485e-14
5.443854277226697e-14
5.497294268250398e-14
5.551250182993283e-14
5.605726915804557e-14
5.660729406614041e-14
5.716262641348734e-14
5.772331652352808e-14
5.828941518811295e-14
5.886097367177607e-14
5.943804371604983e-14
6.002067754381576e-14
6.060892786369858e-14
6.12028478744934e-14
6.180249126963628e-14
6.240791224171673e-14
6.301916548702393e-14
6.363630621014121e-14
6.425939012857474e-14
6.488847347742764e-14
6.552361301411707e-14
6.616486602312699e-14
6.681229032080921e-14
6.746594426022845e-14
6.812588673604131e-14
6.879217718943137e-14
6.946487561307716e-14
7.014404255617176e-14
7.082973912948457e-14
7.152202701046506e-14
7.222096844840112e-14
7.292662626960908e-14
7.363906388268518e-14
7.435834528379318e-14
7.508453506200373e-14
7.581769840467744e-14
7.6557901102904e-14
7.730520955697711e-14
7.805969078193184e-14
7.882141241311874e-14
7.959044271183528e-14
8.036685057100907e-14
8.115070552092053e-14
8.194207773498826e-14
8.274103803560283e-14
8.354765790000376e-14
8.436200946622401e-14
8.518416553907238e-14
8.601419959617835e-14
8.685218579408678e-14
8.769819897440936e-14
8.855231467002345e-14
8.941460911133968e-14
9.028515923260915e-14
9.116404267829743e-14
9.205133780951138e-14
9.294712371048117e-14
9.385148019510639e-14
9.476448781355047e-14
9.568622785889946e-14
9.661678237388288e-14
9.755623415764383e-14
9.850466677258101e-14
9.946216455124054e-14
1.00428812603275e-13
1.01404696822468e-13
1.023899038938055e-13
1.033845213006261e-13
1.043886373318311e-13
1.054023410891454e-13
1.064257224944629e-13
1.074588722972386e-13
1.085018820819577e-13
1.095548442756667e-13
1.106178521555678e-13
1.116909998566862e-13
1.127743823796039e-13
1.138680955982538e-13
1.14972236267797e-13
1.160869020325564e-13
1.172121914340238e-13
1.18348203918947e-13
1.194950398474715e-13
1.206528005013662e-13
1.218215880923228e-13
1.230015057703147e-13
1.241926576320454e-13
1.253951487294625e-13
1.266090850783475e-13
1.278345736669854e-13
1.290717224649003e-13
1.303206404316863e-13
1.315814375258933e-13
1.328542247140093e-13
1.341391139795157e-13
1.354362183320157e-13
1.367456518164524e-13
1.380675295224066e-13
1.394019675934669e-13
1.407490832366937e-13
1.421089947321658e-13
1.434818214425938e-13
1.448676838230476e-13
1.462667034307394e-13
1.47679002934907e-13
1.491047061267937e-13
1.505439379296912e-13
1.519968244090881e-13
1.534634927829093e-13
1.549440714318285e-13
1.564386899096949e-13
1.57947478954024e-13
1.59470570496601e-13
1.610080976741776e-13
1.625601948392413e-13
1.641269975709002e-13
1.657086426858624e-13
1.67305268249491e-13
1.689170135869849e-13
1.705440192946299e-13
1.721864272511661e-13
1.738443806292552e-13
1.755180239070307e-13
1.772075028797682e-13
1.789129646716517e-13
1.806345577476358e-13
1.823724319254209e-13
1.841267383875261e-13
1.858976296934733e-13
1.876852597920765e-13
1.894897840338304e-13
1.913113591834183e-13
1.931501434323302e-13
1.950062964115709e-13
1.968799792045034e-13
1.987713543597991e-13
2.006805859044781e-13
2.026078393571059e-13
2.04553281741054e-13
2.065170815979263e-13
2.084994090010625e-13
2.105004355691808e-13
2.125203344801399e-13
2.145592804848021e-13
2.166174499210389e-13
2.186950207278531e-13
2.207921724596103e-13
2.229090863004065e-13
2.250459450785697e-13
2.272029332812543e-13
2.293802370692113e-13
2.315780442916376e-13
2.337965445011868e-13
2.360359289691019e-13
2.382963907004696e-13
2.405781244496322e-13
2.428813267356961e-13
2.45206195858205e-13
2.475529319129513e-13
2.499217368078915e-13
2.523128142792322e-13
2.547263699076552e-13
2.571626111346538e-13
2.596217472790392e-13
2.621039895535896e-13
2.646095510818151e-13
2.671386469149104e-13
2.696914940488096e-13
2.722683114414323e-13
2.748693200300416e-13
2.774947427487711e-13
2.801448045463163e-13
2.828197324037426e-13
2.85519755352479e-13
2.882451044924663e-13
2.909960130104346e-13
2.937727161983695e-13
2.965754514721341e-13
2.994044583902199e-13
3.022599786727128e-13
3.051422562203687e-13
3.080515371338982e-13
3.109880697333934e-13
3.139521045779258e-13
3.169438944853125e-13
3.199636945520777e-13
3.230117621735303e-13
3.260883570640856e-13
3.291937412777066e-13
3.32328179228537e-13
3.354919377117468e-13
3.386852859244872e-13
3.419084954870972e-13
3.451618404644542e-13
3.484455973875123e-13
3.517600452750347e-13
3.551054656555126e-13
3.584821425892645e-13
3.618903626907393e-13
3.653304151509884e-13
3.688025917603716e-13
3.723071869314024e-13
3.758444977218389e-13
3.794148238579671e-13
3.830184677580418e-13
3.866557345559761e-13
3.903269321252316e-13
3.940323711028792e-13
3.977723649138879e-13
4.015472297956503e-13
4.053572848226464e-13
4.092028519314194e-13
4.13084255945657e-13
4.170018246015681e-13
4.209558885734594e-13
4.249467814994976e-13
4.289748400077426e-13
4.330404037423649e-13
4.371438153900955e-13
4.412854207069382e-13
4.454655685450549e-13
4.496846108799082e-13
4.539429028376655e-13
4.582408027227784e-13
4.625786720458398e-13
4.669568755516878e-13
4.713757812476889e-13
4.75835760432364e-13
4.803371877241401e-13
4.848804410904584e-13
4.894659018770604e-13
4.940939548375484e-13
4.987649881631923e-13
5.034793935130186e-13
5.082375660441007e-13
5.130399044421813e-13
5.178868109524712e-13
5.227786914107914e-13
5.277159552749451e-13
5.326990156563335e-13
5.377282893518907e-13
5.428041968762631e-13
5.479271624942673e-13
5.530976142536092e-13
5.583159840179412e-13
5.635827075001001e-13
5.68898224295749e-13
5.742629779171927e-13
5.796774158275607e-13
5.851419894752565e-13
5.906571543286816e-13
5.962233699112812e-13
6.018410998368819e-13
6.075108118453055e-13
6.132329778383547e-13
6.190080739159985e-13
6.248365804129656e-13
6.307189819356164e-13
6.366557673990787e-13
6.426474300647681e-13
6.486944675782174e-13
6.547973820071721e-13
6.60956679880086e-13
6.671728722248761e-13
6.734464746080689e-13
6.797780071742211e-13
6.86167994685697e-13
6.926169665628324e-13
6.991254569243465e-13
7.056940046281659e-13
7.123231533125894e-13
7.190134514377559e-13
7.257654523275204e-13
7.325797142116612e-13
7.394568002684154e-13
7.463972786674539e-13
7.534017226131155e-13
7.604707103880938e-13
7.676048253974825e-13
7.748046562131118e-13
7.820707966183904e-13
7.894038456534191e-13
7.968044076605257e-13
8.042730923302266e-13
8.118105147474823e-13
8.194172954384215e-13
8.270940604174765e-13
8.348414412348015e-13
8.42660075024231e-13
8.505506045515666e-13
8.585136782632562e-13
8.665499503355729e-13
8.74660080724087e-13
8.828447352136597e-13
8.911045854688296e-13
8.994403090845605e-13
9.07852589637541e-13
9.16342116737794e-13
9.249095860807767e-13
9.335556994999845e-13
9.422811650198413e-13
9.51086696909171e-13
9.599730157351013e-13
9.689408484173412e-13
9.779909282830151e-13
9.871239951218871e-13
9.963407952420889e-13
1.005642081526312e-12
1.015028613488461e-12
1.024501157330775e-12
1.03406048600148e-12
1.043707379252846e-12
1.05344262369984e-12
1.063267012879128e-12
1.073181347308708e-12
1.083186434548013e-12
1.09328308925843e-12
1.103472133264434e-12
1.113754395615218e-12
1.124130712646767e-12
1.134601928044543e-12
1.145168892906656e-12
1.155832465807556e-12
1.166593512862279e-12
1.177452907791211e-12
1.188411531985448e-12
1.199470274572615e-12
1.210630032483305e-12
1.2218917105181e-12
1.233256221415048e-12
1.244724485917786e-12
1.256297432844263e-12
1.267975999155925e-12
1.279761130027583e-12
1.291653778917835e-12
1.303654907640045e-12
1.315765486433995e-12
1.327986494038008e-12
1.340318917761808e-12
1.352763753559947e-12
1.365322006105756e-12
1.377994688866074e-12
1.39078282417648e-12
1.403687443317157e-12
1.41670958658952e-12
1.429850303393298e-12
1.443110652304367e-12
1.456491701153286e-12
1.469994527104321e-12
1.483620216735266e-12
1.497369866117963e-12
1.511244580899279e-12
1.525245476383039e-12
1.539373677612421e-12
1.553630319453136e-12
1.568016546677328e-12
1.582533514048071e-12
1.597182386404704e-12
1.611964338748737e-12
1.626880556330548e-12
1.641932234736866e-12
1.657120579978838e-12
1.672446808580885e-12
1.687912147670422e-12
1.703517835068095e-12
1.719265119378974e-12
1.735155260084378e-12
1.751189527634489e-12
1.767369203541857e-12
1.783695580475452e-12
1.800169962355658e-12
1.816793664450119e-12
1.833568013470134e-12
1.850494347668134e-12
1.867574016935741e-12
1.884808382902782e-12
1.902198819037138e-12
1.919746710745235e-12
1.937453455473561e-12
1.955320462811041e-12
1.973349154592066e-12
1.991540965000501e-12
2.009897340674642e-12
2.028419740812838e-12
2.047109637280201e-12
2.065968514715974e-12
2.084997870641999e-12
2.104199215572002e-12
2.123574073121722e-12
2.143123980120004e-12
2.162850486720892e-12
2.182755156516443e-12
2.202839566650747e-12
2.223105307934616e-12
2.243553984961406e-12
2.264187216223758e-12
2.285006634231237e-12
2.306013885629006e-12
2.327210631317521e-12
2.34859854657305e-12
2.370179321169413e-12
2.391954659500496e-12
2.413926280704046e-12
2.436095918786137e-12
2.458465322746969e-12
2.481036256707647e-12
2.503810500037824e-12
2.526789847484581e-12
2.549976109302385e-12
2.573371111383918e-12
2.596976695392181e-12
2.620794718893646e-12
2.644827055492382e-12
2.669075594965465e-12
2.693542243399396e-12
2.718228923327626e-12
2.743137573869347e-12
2.768270150869151e-12
2.79362862703825e-12
2.819214992096365e-12
2.845031252915236e-12
2.871079433663046e-12
2.897361575950108e-12
2.923879738975662e-12
2.950635999676127e-12
2.977632452874198e-12
3.004871211429589e-12
3.032354406390571e-12
3.060084187147146e-12
3.088062721585184e-12
3.116292196242112e-12
3.144774816463519e-12
3.173512806561433e-12
3.20250840997355e-12
3.231763889423996e-12
3.261281527085387e-12
3.291063624742056e-12
3.321112503954839e-12
3.351430506226962e-12
3.38201999317156e-12
3.412883346680398e-12
3.444022969093932e-12
3.475441283372845e-12
3.507140733271126e-12
3.539123783510168e-12
3.571392919954858e-12
3.603950649790411e-12
3.636799501701253e-12
3.669942026051233e-12
3.703380795064912e-12
3.737118403010845e-12
3.771157466386163e-12
3.805500624102479e-12
3.840150537673685e-12
3.875109891404879e-12
3.910381392583139e-12
3.945967771669854e-12
3.981871782494211e-12
4.018096202448871e-12
4.054643832686735e-12
4.091517498319627e-12
4.128720048618438e-12
4.1662543572149e-12
4.204123322305107e-12
4.242329866854707e-12
4.28087693880544e-12
4.319767511283939e-12
4.359004582811631e-12
4.398591177516717e-12
4.438530345347873e-12
4.478825162289403e-12
4.519478730578425e-12
4.560494178923822e-12
4.601874662726655e-12
4.643623364302835e-12
4.685743493107177e-12
4.728238285959513e-12
4.771111007272691e-12
4.81436494928213e-12
4.858003432277506e-12
4.902029804836412e-12
4.946447444059382e-12
4.991259755807581e-12
5.036470174941727e-12
5.082082165563298e-12
5.128099221257861e-12
5.174524865339883e-12
5.221362651099855e-12
5.268616162053583e-12
5.316289012192959e-12
5.364384846239291e-12
5.412907339898474e-12
5.461860200117992e-12
5.511247165346666e-12
5.561072005795642e-12
5.611338523702056e-12
5.662050553594916e-12
5.713211962562571e-12
5.764826650522933e-12
5.816898550495528e-12
5.869431628875854e-12
5.922429885712018e-12
5.975897354983521e-12
6.029838104882147e-12
6.084256238095631e-12
6.139155892092997e-12
6.19454123941252e-12
6.250416487952072e-12
6.306785881261578e-12
6.363653698838188e-12
6.421024256423249e-12
6.478901906302213e-12
6.53729103760697e-12
6.596196076619892e-12
6.655621487081593e-12
6.715571770499607e-12
6.776051466460962e-12
6.837065152946537e-12
6.898617446647922e-12
6.960713003287069e-12
7.023356517938788e-12
7.086552725354902e-12
7.150306400291886e-12
7.214622357841143e-12
7.279505453761103e-12
7.344960584812794e-12
7.410992689098074e-12
7.477606746399835e-12
7.544807778525986e-12
7.612600849655157e-12
7.680991066686343e-12
7.74998357958994e-12
7.81958358176293e-12
7.889796310386209e-12
7.960627046784698e-12
8.032081116790831e-12
8.104163891110551e-12
8.176880785692404e-12
8.250237262099496e-12
8.324238827884762e-12
8.398891036968417e-12
8.47419949001978e-12
8.550169834840534e-12
8.626807766752347e-12
8.704119028987326e-12
8.782109413080624e-12
8.860784759268016e-12
8.940150956884594e-12
9.02021394476823e-12
9.100979711665717e-12
9.182454296641774e-12
9.26464378949187e-12
9.347554331158308e-12
9.431192114149184e-12
9.515563382961171e-12
9.600674434505325e-12
9.68653161853658e-12
9.773141338086688e-12
9.86051004990008e-12
9.948644264873801e-12
1.003755054850095e-11
1.012723552131693e-11
1.021770585935041e-11
1.030896829457674e-11
1.040102961537557e-11
1.049389666699225e-11
1.058757635200246e-11
1.068207563078085e-11
1.077740152197337e-11
1.087356110297326e-11
1.097056151040072e-11
1.106840994058674e-11
1.116711365006049e-11
1.126667995604086e-11
1.136711623693159e-11
1.146842993282019e-11
1.157062854598195e-11
1.167371964138596e-11
1.17777108472074e-11
1.188260985534197e-11
1.19884244219257e-11
1.209516236785844e-11
1.220283157933104e-11
1.231144000835757e-11
1.242099567331146e-11
1.253150665946516e-11
1.264298111953517e-11
1.275542727423123e-11
1.286885341280845e-11
1.298326789362627e-11
1.309867914470939e-11
1.321509566431496e-11
1.3332526021503e-11
1.345097885671219e-11
1.357046288234013e-11
1.369098688332737e-11
1.381255971774697e-11
1.393519031739871e-11
1.405888768840709e-11
1.41836609118249e-11
1.430951914424184e-11
1.443647161839639e-11
1.456452764379465e-11
1.469369660733204e-11
1.482398797392165e-11
1.495541128712603e-11
1.508797616979501e-11
1.522169232470845e-11
1.535656953522344e-11
1.549261766592696e-11
1.562984666329421e-11
1.576826655635113e-11
1.590788745734277e-11
1.604871956240722e-11
1.619077315225377e-11
1.633405859284741e-11
1.647858633609871e-11
1.662436692055798e-11
1.677141097211683e-11
1.691972920471314e-11
1.706933242104285e-11
1.722023151327772e-11
1.737243746378717e-11
1.752596134586713e-11
1.76808143244745e-11
1.783700765696649e-11
1.7994552693847e-11
1.815346087951749e-11
1.831374375303504e-11
1.847541294887604e-11
1.863848019770468e-11
1.88029573271492e-11
1.896885626258357e-11
1.913618902791454e-11
1.930496774637623e-11
1.947520464132956e-11
1.964691203706905e-11
1.982010235963524e-11
1.999478813763424e-11
2.017098200306315e-11
2.034869669214102e-11
2.05279450461483e-11
2.070874001227198e-11
2.08910946444562e-11
2.107502210426189e-11
2.126053566173065e-11
2.144764869625697e-11
2.163637469746663e-11
2.182672726610296e-11
2.201872011491785e-11
2.221236706957276e-11
2.240768206954328e-11
2.260467916903373e-11
2.280337253789816e-11
2.300377646256654e-11
2.320590534698162e-11
2.340977371353987e-11
2.36153962040414e-11
2.382278758064799e-11
2.403196272684634e-11
2.424293664842059e-11
2.445572447443283e-11
2.46703414582088e-11
2.488680297833373e-11
2.510512453965529e-11
2.53253217742936e-11
2.554741044265992e-11
2.577140643448212e-11
2.599732576984082e-11
2.622518460020966e-11
2.645499920950677e-11
2.668678601515372e-11
2.692056156914144e-11
2.715634255910623e-11
2.739414580941258e-11
2.763398828224554e-11
2.787588707871044e-11
2.811985943994319e-11
2.836592274822597e-11
2.861409452811554e-11
2.886439244757616e-11
2.91168343191243e-11
2.937143810098204e-11
2.962822189823699e-11
2.988720396401454e-11
3.014840270065619e-11
3.041183666090844e-11
3.067752454912254e-11
3.094548522245934e-11
3.121573769210717e-11
3.148830112450831e-11
3.176319484259366e-11
3.204043832702769e-11
3.232005121746472e-11
3.260205331381124e-11
3.288646457750213e-11
3.317330513278309e-11
3.346259526800532e-11
3.375435543693018e-11
3.404860626004184e-11
3.434536852587329e-11
3.464466319233881e-11
3.494651138807953e-11
3.525093441382025e-11
3.55579537437316e-11
3.586759102680947e-11
3.617986808825983e-11
3.649480693089657e-11
3.681242973654953e-11
3.71327588674849e-11
3.745581686783303e-11
3.778162646503172e-11
3.811021057127603e-11
3.844159228498315e-11
3.877579489226724e-11
3.91128418684237e-11
3.945275687942791e-11
3.979556378344396e-11
4.014128663234428e-11
4.048994967324295e-11
4.084157735003877e-11
4.119619430497079e-11
4.155382538018803e-11
4.191449561932685e-11
4.227823026910389e-11
4.264505478092167e-11
4.301499481248197e-11
4.338807622941834e-11
4.376432510693387e-11
4.41437677314587e-11
4.452643060231389e-11
4.491234043339206e-11
4.530152415485057e-11
4.569400891481485e-11
4.608982208109836e-11
4.648899124293394e-11
4.689154421271801e-11
4.729750902776857e-11
4.77069139520983e-11
4.811978747819811e-11
4.853615832883647e-11
4.895605545887323e-11
4.937950805708354e-11
4.980654554800176e-11
5.023719759377227e-11
5.06714940960207e-11
5.110946519773647e-11
5.155114128516915e-11
5.19965529897417e-11
5.244573118997566e-11
5.289870701343254e-11
5.335551183867175e-11
5.381617729721823e-11
5.428073527555001e-11
5.474921791710102e-11
5.522165762427388e-11
5.569808706047397e-11
5.617853915215716e-11
5.666304709089002e-11
5.715164433543147e-11
5.76443646138244e-11
5.81412419255069e-11
5.864231054344071e-11
5.914760501624986e-11
5.965716017038242e-11
6.017101111228534e-11
6.06891932305948e-11
6.121174219834726e-11
6.173869397520197e-11
6.227008480968484e-11
6.280595124144657e-11
6.334633010354176e-11
6.389125852471782e-11
6.444077393173107e-11
6.499491405167223e-11
6.555371691431335e-11
6.61172208544724e-11
6.668546451439444e-11
6.72584868461547e-11
6.78363271140711e-11
6.841902489714797e-11
6.900662009152493e-11
6.959915291295398e-11
7.019666389929274e-11
7.079919391301209e-11
7.140678414372938e-11
7.201947611075861e-11
7.263731166567635e-11
7.326033299491119e-11
7.388858262235428e-11
7.452210341198126e-11
7.516093857050604e-11
7.580513165004186e-11
7.645472655079492e-11
7.710976752376754e-11
7.777029917348797e-11
7.843636646076218e-11
7.910801470543798e-11
7.97852895892009e-11
8.046823715838278e-11
8.115690382679432e-11
8.185133637858303e-11
8.255158197110474e-11
8.325768813782181e-11
8.396970279122596e-11
8.468767422577486e-11
8.541165112085729e-11
8.614168254378197e-11
8.687781795277936e-11
8.762010720003996e-11
8.836860053476121e-11
8.912334860622813e-11
8.988440246691386e-11
9.065181357559934e-11
9.14256338005214e-11
9.220591542254641e-11
9.299271113835846e-11
9.378607406368039e-11
9.458605773651907e-11
9.53927161204251e-11
9.62061036077916e-11
9.702627502316402e-11
9.785328562658328e-11
9.868719111695366e-11
9.952804763542897e-11
1.003759117688344e-10
1.012308405531049e-10
1.020928914767529e-10
1.02962122484367e-10
1.038385919801259e-10
1.047223588313477e-10
1.056134823720651e-10
1.065120224066205e-10
1.074180392132951e-10
1.083315935479639e-10
1.092527466477768e-10
1.101815602348631e-10
1.111180965200731e-10
1.120624182067396e-10
1.130145884944723e-10
1.139746710829766e-10
1.14942730175903e-10
1.159188304847302e-10
1.169030372326631e-10
1.178954161585792e-10
1.188960335209848e-10
1.199049561020182e-10
1.209222512114695e-10
1.219479866908377e-10
1.229822309174153e-10
1.240250528084067e-10
1.250765218250688e-10
1.261367079768967e-10
1.272056818258232e-10
1.282835144904643e-10
1.2937027765039e-10
1.304660435504244e-10
1.315708850049861e-10
1.326848754024496e-10
1.338080887095482e-10
1.349405994758094e-10
1.360824828380141e-10
1.372338145247004e-10
1.383946708606957e-10
1.395651287716768e-10
1.407452657887809e-10
1.419351600532262e-10
1.431348903209886e-10
1.44344535967505e-10
1.455641769924063e-10
1.467938940242958e-10
1.480337683255517e-10
1.49283881797176e-10
1.505443169836742e-10
1.518151570779682e-10
1.530964859263511e-10
1.543883880334774e-10
1.556909485673877e-10
1.570042533645701e-10
1.583283889350688e-10
1.596634424676124e-10
1.610095018347958e-10
1.623666555982982e-10
1.637349930141334e-10
1.651146040379383e-10
1.665055793303098e-10
1.679080102621767e-10
1.693219889202063e-10
1.707476081122522e-10
1.721849613728571e-10
1.736341429687692e-10
1.750952479045241e-10
1.765683719280556e-10
1.7805361153635e-10
1.795510639811398e-10
1.810608272746492e-10
1.825830001953663e-10
1.841176822938702e-10
1.856649738987003e-10
1.8722497612226e-10
1.887977908667719e-10
1.903835208302756e-10
1.919822695126713e-10
1.935941412217901e-10
1.952192410795474e-10
1.968576750281018e-10
1.985095498360772e-10
2.001749731048336e-10
2.018540532747788e-10
2.035468996317246e-10
2.052536223132903e-10
2.069743323153632e-10
2.087091414985946e-10
2.104581625949361e-10
2.122215092142576e-10
2.139992958509719e-10
2.157916378907371e-10
2.175986516171916e-10
2.194204542187573e-10
2.212571637954651e-10
2.23108899365856e-10
2.249757808739242e-10
2.268579291961012e-10
2.28755466148303e-10
2.306685144930335e-10
2.325971979465166e-10
2.345416411859065e-10
2.365019698565392e-10
2.384783105792303e-10
2.404707909576391e-10
2.42479539585688e-10
2.445046860550082e-10
2.465463609624878e-10
2.486046959178197e-10
2.506798235511591e-10
2.527718775207923e-10
2.54880992520885e-10
2.570073042892834e-10
2.591509496153749e-10
2.613120663479895e-10
2.634907934033864e-10
2.656872707732706e-10
2.679016395328864e-10
2.701340418491694e-10
2.723846209889432e-10
2.746535213271946e-10
2.769408883553908e-10
2.792468686898782e-10
2.815716100803178e-10
2.839152614182005e-10
2.86277972745424e-10
2.886598952629152e-10
2.910611813393309e-10
2.934819845198281e-10
2.959224595348677e-10
2.983827623091161e-10
3.008630499703943e-10
3.033634808586935e-10
3.058842145352534e-10
3.084254117917232e-10
3.109872346593546e-10
3.135698464183105e-10
3.161734116069898e-10
3.187980960314592e-10
3.214440667749293e-10
3.241114922073098e-10
3.268005419948412e-10
3.295113871097724e-10
3.322441998401309e-10
3.349991537995628e-10
3.37776423937223e-10
3.405761865477576e-10
3.433986192813624e-10
3.462439011538861e-10
3.491122125570338e-10
3.520037352686376e-10
3.54918652462988e-10
3.57857148721265e-10
3.608194100420155e-10
3.63805623851734e-10
3.668159790154927e-10
3.698506658476715e-10
3.729098761227625e-10
3.759938030862257e-10
3.791026414654591e-10
3.82236587480835e-10
3.853958388567985e-10
3.885805948330661e-10
3.917910561759143e-10
3.950274251895046e-10
3.982899057273536e-10
4.015787032038213e-10
4.048940246057338e-10
4.082360785040586e-10
4.116050750656767e-10
4.150012260652457e-10
4.18424744897118e-10
4.218758465873779e-10
4.253547478059659e-10
4.288616668788493e-10
4.323968238003271e-10
4.359604402454095e-10
4.395527395822572e-10
4.431739468847531e-10
4.46824288945146e-10
4.505039942867698e-10
4.54213293176884e-10
4.579524176395693e-10
4.617216014687672e-10
4.655210802413483e-10
4.693510913303297e-10
4.73211873918169e-10
4.771036690101316e-10
4.810267194477829e-10
4.849812699225742e-10
4.889675669895049e-10
4.92985859080895e-10
4.970363965202732e-10
5.011194315363292e-10
5.0523521827699e-10
5.093840128236055e-10
5.135660732051917e-10
5.177816594128251e-10
5.220310334141272e-10
5.263144591678317e-10
5.306322026384483e-10
5.349845318111005e-10
5.393717167063901e-10
5.437940293953886e-10
5.482517440147638e-10
5.527451367819995e-10
5.572744860106971e-10
5.618400721260196e-10
5.664421776802533e-10
5.71081087368426e-10
5.757570880440896e-10
5.804704687352143e-10
5.852215206601472e-10
5.900105372437333e-10
5.948378141335355e-10
5.997036492161623e-10
6.046083426337198e-10
6.095521968003756e-10
6.145355164190524e-10
6.195586084982176e-10
6.246217823688116e-10
6.297253497012971e-10
6.348696245228091e-10
6.400549232344432e-10
6.452815646286802e-10
6.505498699068891e-10
6.558601626969962e-10
6.612127690712767e-10
6.666080175642361e-10
6.720462391906754e-10
6.775277674638125e-10
6.830529384135968e-10
6.886220906051464e-10
6.942355651572376e-10
6.998937057610596e-10
7.055968586989657e-10
7.113453728634447e-10
7.17139599776212e-10
7.229798936074005e-10
7.28866611194918e-10
7.34800112063955e-10
7.407807584465598e-10
7.468089153014688e-10
7.528849503339463e-10
7.590092340158557e-10
7.651821396058551e-10
7.714040431696965e-10
7.776753236007254e-10
7.839963626404486e-10
7.903675448993567e-10
7.967892578777799e-10
8.032618919869633e-10
8.097858405702508e-10
8.163614999244669e-10
8.22989269321377e-10
8.29669551029365e-10
8.3640275033525e-10
8.431892755661986e-10
8.500295381118728e-10
8.569239524467032e-10
8.638729361522796e-10
8.708769099399502e-10
8.779362976735799e-10
8.850515263924034e-10
8.922230263341477e-10
8.994512309581822e-10
9.067365769689754e-10
9.140795043395879e-10
9.214804563354076e-10
9.289398795380501e-10
9.364582238693673e-10
9.440359426156792e-10
9.516734924521936e-10
9.593713334675024e-10
9.671299291883396e-10
9.749497466045106e-10
9.828312561939166e-10
9.907749319478297e-10
9.987812513963341e-10
1.006850695633919e-09
1.014983749345244e-09
1.023180900831132e-09
1.031442642034713e-09
1.039769468567728e-09
1.048161879737086e-09
1.056620378571502e-09
1.065145471848432e-09
1.073737670121111e-09
1.082397487745854e-09
1.091125442909444e-09
1.099922057656853e-09
1.108787857918998e-09
1.117723373540804e-09
1.126729138309459e-09
1.135805689982769e-09
1.144953570317842e-09
1.154173325099848e-09
1.163465504171062e-09
1.172830661460105e-09
1.182269355011332e-09
1.191782147014462e-09
1.201369603834444e-09
1.211032296041453e-09
1.220770798441194e-09
1.230585690105287e-09
1.240477554402007e-09
1.250446979027147e-09
1.260494556035092e-09
1.270620881870144e-09
1.2808265573981e-09
1.291112187937918e-09
1.301478383293748e-09
1.311925757787113e-09
1.322454930289305e-09
1.333066524254059e-09
1.34376116775036e-09
1.354539493495578e-09
1.36540213888882e-09
1.376349746044397e-09
1.387382961825671e-09
1.398502437879086e-09
1.40970883066835e-09
1.421002801508982e-09
1.43238501660304e-09
1.443856147074078e-09
1.455416869002329e-09
1.467067863460205e-09
1.478809816547941e-09
1.490643419429626e-09
1.502569368369272e-09
1.514588364767382e-09
1.526701115197537e-09
1.538908331443429e-09
1.551210730535991e-09
1.563609034790894e-09
1.576103971846234e-09
1.588696274700576e-09
1.60138668175107e-09
1.614175936832081e-09
1.627064789253838e-09
1.640053993841573e-09
1.653144310974709e-09
1.666336506626497e-09
1.679631352403894e-09
1.693029625587576e-09
1.706532109172379e-09
1.720139591908024e-09
1.733852868339971e-09
1.74767273885067e-09
1.761600009701144e-09
1.775635493072689e-09
1.789780007108993e-09
1.804034375958573e-09
1.818399429817299e-09
1.832876004971467e-09
1.847464943841003e-09
1.86216709502303e-09
1.876983313335662e-09