/*--------------------------------*- C++ -*----------------------------------*\
| =========                 |                                                 |
| \\      /  F ield         | OpenFOAM: The Open Source CFD Toolbox           |
|  \\    /   O peration     | Version:  2412                                  |
|   \\  /    A nd           | Website:  www.openfoam.com                      |
|    \\/     M anipulation  |                                                 |
\*---------------------------------------------------------------------------*/
FoamFile
{
    version     2.0;
    format      ascii;
    arch        "LSB;label=32;scalar=64";
    class       volScalarField;
    location    "0";
    object      T_0_0;
}
// * * * * * * * * * * * * * * * * * * * * * * * * * * * * * * * * * * * * * //

dimensions      [0 0 0 1 0 0 0];

internalField   nonuniform List<scalar> 
16000
(
1.273018803738187e-14
1.285810806154445e-14
1.298729320474047e-14
1.3117755771863e-14
1.324950818540496e-14
1.338256298656113e-14
1.351693283634307e-14
1.365263051670152e-14
1.378966893166119e-14
1.392806110846527e-14
1.406782019872974e-14
1.420895947960952e-14
1.435149235497486e-14
1.449543235659779e-14
1.464079314535115e-14
1.478758851241637e-14
1.493583238050455e-14
1.508553880508777e-14
1.523672197564075e-14
1.5389396216896e-14
1.554357599010896e-14
1.569927589433471e-14
1.585651066771767e-14
1.601529518879134e-14
1.617564447779138e-14
1.633757369798097e-14
1.650109815698583e-14
1.666623330814494e-14
1.683299475187112e-14
1.700139823702478e-14
1.717145966230103e-14
1.734319507762809e-14
1.751662068557932e-14
1.769175284279872e-14
1.786860806143836e-14
1.804720301060905e-14
1.822755451784581e-14
1.840967957058412e-14
1.859359531765276e-14
1.877931907077711e-14
1.896686830609893e-14
1.915626066570877e-14
1.934751395919179e-14
1.954064616518857e-14
1.973567543297111e-14
1.993262008403035e-14
2.013149861368166e-14
2.033232969268198e-14
2.053513216886362e-14
2.073992506878242e-14
2.094672759938079e-14
2.11555591496656e-14
2.136643929240306e-14
2.157938778582578e-14
2.179442457535958e-14
2.201156979536262e-14
2.223084377088118e-14
2.245226701942351e-14
2.267586025274672e-14
2.29016443786624e-14
2.312964050285696e-14
2.335986993072954e-14
2.359235416924725e-14
2.382711492881525e-14
2.406417412516534e-14
2.430355388126243e-14
2.454527652922589e-14
2.478936461227118e-14
2.503584088666698e-14
2.528472832371094e-14
2.553605011172416e-14
2.578982965806225e-14
2.604609059114543e-14
2.630485676250791e-14
2.656615224886389e-14
2.683000135419479e-14
2.709642861185271e-14
2.73654587866854e-14
2.763711687717951e-14
2.791142811762248e-14
2.818841798028524e-14
2.846811217762534e-14
2.875053666450681e-14
2.903571764044529e-14
2.932368155186727e-14
2.961445509439574e-14
2.99080652151537e-14
3.020453911508652e-14
3.050390425131013e-14
3.080618833947748e-14
3.111141935616519e-14
3.141962554128592e-14
3.173083540051822e-14
3.204507770776101e-14
3.23623815076103e-14
3.268277611785619e-14
3.30062911320045e-14
3.333295642182131e-14
3.366280213989787e-14
3.399585872224304e-14
3.433215689089411e-14
3.467172765655531e-14
3.501460232125894e-14
3.536081248104884e-14
3.571039002869018e-14
3.606336715640365e-14
3.641977635862234e-14
3.67796504347767e-14
3.714302249209997e-14
3.750992594846457e-14
3.788039453524047e-14
3.825446230017808e-14
3.863216361032198e-14
3.901353315494698e-14
3.939860594852067e-14
3.97874173336957e-14
4.01800029843256e-14
4.057639890850902e-14
4.097664145166411e-14
4.13807672996245e-14
4.178881348176841e-14
4.220081737417591e-14
4.261681670280931e-14
4.303684954672967e-14
4.346095434133446e-14
4.388916988163118e-14
4.432153532553676e-14
4.475809019720609e-14
4.519887439039268e-14
4.564392817183998e-14
4.609329218469774e-14
4.654700745197816e-14
4.700511538003306e-14
4.746765776207039e-14
4.793467678169912e-14
4.840621501650344e-14
4.888231544165396e-14
4.936302143354771e-14
4.984837677348248e-14
5.033842565136379e-14
5.08332126694444e-14
5.1332782846097e-14
5.183718161962423e-14
5.234645485209793e-14
5.286064883323504e-14
5.337981028431064e-14
5.390398636210035e-14
5.44332246628647e-14
5.496757322636241e-14
5.550708053990531e-14
5.605179554244762e-14
5.660176762870897e-14
5.715704665333947e-14
5.771768293511826e-14
5.828372726118924e-14
5.885523089133959e-14
5.943224556230968e-14
6.001482349214646e-14
6.060301738459432e-14
6.119688043352567e-14
6.179646632740746e-14
6.240182925381522e-14
6.301302390397803e-14
6.363010547737432e-14
6.425312968635728e-14
6.488215276083124e-14
6.551723145296632e-14
6.615842304195259e-14
6.680578533879897e-14
6.745937669117858e-14
6.811925598830865e-14
6.878548266588252e-14
6.945811671103898e-14
7.01372186673805e-14
7.08228496400365e-14
7.151507130076373e-14
7.221394589310555e-14
7.291953623758335e-14
7.363190573694297e-14
7.435111838144766e-14
7.507723875421089e-14
7.581033203658539e-14
7.655046401359437e-14
7.729770107941381e-14
7.805211024290329e-14
7.881375913318184e-14
7.958271600526086e-14
8.035904974572169e-14
8.11428298784441e-14
8.193412657038594e-14
8.27330106374185e-14
8.35395535502046e-14
8.435382744013946e-14
8.517590510533373e-14
8.600586001665826e-14
8.684376632383995e-14
8.768969886160734e-14
8.854373315589547e-14
8.940594543010884e-14
9.027641261142708e-14
9.115521233718348e-14
9.204242296128588e-14
9.293812356070092e-14
9.384239394199894e-14
9.475531464794716e-14
9.567696696417064e-14
9.660743292586835e-14
9.754679532458548e-14
9.849513771505348e-14
9.945254442208402e-14
1.004191005475233e-13
1.013948919772786e-13
1.023800053883881e-13
1.033745282561728e-13
1.043785488614408e-13
1.053921562977534e-13
1.064154404787662e-13
1.074484921456221e-13
1.084914028744181e-13
1.095442650837384e-13
1.106071720422457e-13
1.116802178763473e-13
1.127634975779332e-13
1.138571070121626e-13
1.149611429253465e-13
1.160757029528746e-13
1.17200885627229e-13
1.183367903860637e-13
1.194835175803508e-13
1.206411684826008e-13
1.218098452951639e-13
1.229896511585918e-13
1.241806901600768e-13
1.253830673419729e-13
1.265968887103789e-13
1.278222612438125e-13
1.290592929019421e-13
1.30308092634416e-13
1.315687703897531e-13
1.328414371243135e-13
1.341262048113667e-13
1.354231864502072e-13
1.3673249607538e-13
1.380542487659719e-13
1.393885606549865e-13
1.407355489388017e-13
1.420953318867174e-13
1.43468028850572e-13
1.448537602744629e-13
1.462526477045308e-13
1.476648137988454e-13
1.490903823373798e-13
1.505294782320541e-13
1.519822275368866e-13
1.534487574582248e-13
1.549291963650661e-13
1.564236737994733e-13
1.579323204870748e-13
1.594552683476597e-13
1.609926505058757e-13
1.625446013020015e-13
1.641112563028236e-13
1.65692752312619e-13
1.672892273842109e-13
1.689008208301413e-13
1.705276732339314e-13
1.721699264614402e-13
1.738277236723326e-13
1.755012093316289e-13
1.771905292213768e-13
1.78895830452412e-13
1.806172614762209e-13
1.823549720969187e-13
1.841091134833175e-13
1.858798381811049e-13
1.876673001251412e-13
1.894716546518459e-13
1.912930585116968e-13
1.931316698818512e-13
1.949876483788573e-13
1.968611550714901e-13
1.98752352493702e-13
2.006614046576686e-13
2.025884770669691e-13
2.045337367298647e-13
2.064973521727082e-13
2.084794934534562e-13
2.104803321753037e-13
2.125000415004509e-13
2.145387961639589e-13
2.165967724877631e-13
2.186741483947809e-13
2.207711034231557e-13
2.228878187406139e-13
2.250244771589675e-13
2.271812631487128e-13
2.293583628537902e-13
2.31555964106437e-13
2.337742564421986e-13
2.360134311150575e-13
2.38273681112685e-13
2.405552011718545e-13
2.428581877939454e-13
2.451828392606245e-13
2.47529355649636e-13
2.498979388507388e-13
2.522887925817808e-13
2.547021224049118e-13
2.571381357429384e-13
2.595970418958173e-13
2.620790520573024e-13
2.645843793317148e-13
2.671132387508853e-13
2.696658472912202e-13
2.722424238909297e-13
2.748431894673962e-13
2.774683669347008e-13
2.801181812213029e-13
2.827928592878562e-13
2.854926301451976e-13
2.882177248724905e-13
2.909683766355079e-13
2.937448207050912e-13
2.965472944757687e-13
2.993760374845144e-13
3.02231291429704e-13
3.051133001901926e-13
3.080223098445942e-13
3.109585686907105e-13
3.139223272651234e-13
3.169138383629694e-13
3.19933357057879e-13
3.229811407220806e-13
3.260574490466954e-13
3.291625440621855e-13
3.322966901589937e-13
3.354601541083736e-13
3.386532050833545e-13
3.418761146799357e-13
3.451291569384453e-13
3.484126083650681e-13
3.517267479535787e-13
3.550718572072668e-13
3.584482201610188e-13
3.61856123403634e-13
3.652958561002857e-13
3.687677100152225e-13
3.722719795346278e-13
3.758089616896923e-13
3.793789561798982e-13
3.829822653964653e-13
3.866191944460333e-13
3.902900511745498e-13
3.939951461913256e-13
3.977347928933335e-13
4.015093074897162e-13
4.053190090264666e-13
4.091642194113777e-13
4.130452634391405e-13
4.169624688167125e-13
4.209161661888981e-13
4.249066891640895e-13
4.289343743403228e-13
4.329995613314722e-13
4.371025927937173e-13
4.412438144522337e-13
4.454235751280844e-13
4.496422267653699e-13
4.539001244586117e-13
4.581976264803406e-13
4.625350943089497e-13
4.669128926567915e-13
4.713313894984727e-13
4.757909560994574e-13
4.802919670448298e-13
4.848348002683948e-13
4.894198370819682e-13
4.940474622049252e-13
4.987180637940085e-13
5.034320334734193e-13
5.081897663651013e-13
5.129916611193549e-13
5.178381199456459e-13
5.227295486437309e-13
5.276663566350391e-13
5.326489569942796e-13
5.376777664813673e-13
5.427532055736221e-13
5.478756984981825e-13
5.530456732647737e-13
5.582635616987187e-13
5.635297994741984e-13
5.688448261478828e-13
5.742090851927395e-13
5.796230240322199e-13
5.850870940747032e-13
5.906017507482158e-13
5.961674535354845e-13
6.017846660092434e-13
6.074538558678917e-13
6.131754949714253e-13
6.189500593776527e-13
6.247780293787778e-13
6.306598895382523e-13
6.365961287279357e-13
6.425872401655939e-13
6.486337214527328e-13
6.547360746126835e-13
6.608948061291014e-13
6.671104269847159e-13
6.733834527004725e-13
6.797144033749465e-13
6.861038037241357e-13
6.925521831215916e-13
6.990600756388484e-13
7.056280200862321e-13
7.122565600540434e-13
7.189462439539908e-13
7.256976250610842e-13
7.325112615558271e-13
7.393877165667705e-13
7.463275582134498e-13
7.533313596496465e-13
7.603996991070537e-13
7.675331599393112e-13
7.747323306663683e-13
7.819978050193068e-13
7.893301819854161e-13
7.967300658537836e-13
8.041980662612179e-13
8.117347982384958e-13
8.193408822571196e-13
8.270169442763806e-13
8.347636157908569e-13
8.425815338783022e-13
8.504713412479546e-13
8.584336862892194e-13
8.664692231208177e-13
8.745786116402955e-13
8.827625175739602e-13
8.910216125273029e-13
8.993565740357331e-13
9.077680856158677e-13
9.162568368171353e-13
9.248235232738989e-13
9.334688467579835e-13
9.421935152316521e-13
9.509982429010193e-13
9.598837502699681e-13
9.688507641943907e-13
9.77900017937092e-13
9.87032251222918e-13
9.962482102945316e-13
1.00554864796862e-12
1.014934323692485e-12
1.024406003601188e-12
1.033964460575232e-12
1.043610474298531e-12
1.053344831317144e-12
1.063168325098231e-12
1.073081756089676e-12
1.083085931780197e-12
1.093181666759862e-12
1.103369782781202e-12
1.113651108820873e-12
1.124026481141673e-12
1.134496743355251e-12
1.145062746485292e-12
1.155725349031156e-12
1.166485417032155e-12
1.177343824132291e-12
1.188301451645643e-12
1.199359188622135e-12
1.210517931913996e-12
1.221778586242787e-12
1.233142064266825e-12
1.244609286649371e-12
1.256181182127278e-12
1.267858687580216e-12
1.279642748100516e-12
1.291534317063594e-12
1.303534356198903e-12
1.315643835661597e-12
1.327863734104673e-12
1.34019503875177e-12
1.352638745470627e-12
1.365195858847003e-12
1.377867392259464e-12
1.3906543679545e-12
1.403557817122482e-12
1.416578779974229e-12
1.429718305818096e-12
1.442977453137822e-12
1.456357289671017e-12
1.469858892488222e-12
1.483483348072703e-12
1.497231752400953e-12
1.511105211023694e-12
1.525104839147767e-12
1.539231761718549e-12
1.553487113503099e-12
1.567872039174102e-12
1.582387693394291e-12
1.597035240901818e-12
1.611815856596136e-12
1.626730725624711e-12
1.641781043470477e-12
1.656968016039882e-12
1.672292859751801e-12
1.687756801627155e-12
1.703361079379191e-12
1.71910694150471e-12
1.734995647375788e-12
1.751028467332481e-12
1.767206682776239e-12
1.783531586263999e-12
1.800004481603156e-12
1.816626683947396e-12
1.833399519893123e-12
1.850324327576862e-12
1.867402456773346e-12
1.884635268994547e-12
1.902024137589438e-12
1.919570447844576e-12
1.937275597085566e-12
1.955140994779378e-12
1.973168062637407e-12
1.991358234719554e-12
2.009712957539037e-12
2.028233690168047e-12
2.046921904344535e-12
2.065779084579453e-12
2.084806728265272e-12
2.104006345785267e-12
2.123379460623602e-12
2.142927609476425e-12
2.162652342364007e-12
2.182555222743423e-12
2.202637827622701e-12
2.222901747675406e-12
2.243348587356485e-12
2.263979965019005e-12
2.284797513031798e-12
2.305802877898059e-12
2.326997720375111e-12
2.348383715594838e-12
2.369962553185531e-12
2.391735937394213e-12
2.413705587210577e-12
2.43587323649142e-12
2.458240634086365e-12
2.480809543964687e-12
2.50358174534291e-12
2.526559032813696e-12
2.549743216475796e-12
2.573136122064856e-12
2.596739591085507e-12
2.620555480944534e-12
2.64458566508497e-12
2.66883203312146e-12
2.69329649097677e-12
2.717980961019197e-12
2.742887382201328e-12
2.768017710199861e-12
2.793373917556603e-12
2.81895799382052e-12
2.844771945691091e-12
2.870817797162845e-12
2.897097589670897e-12
2.923613382237918e-12
2.950367251622188e-12
2.977361292466817e-12
3.004597617450389e-12
3.032078357438534e-12
3.059805661637064e-12
3.087781697746134e-12
3.116008652115893e-12
3.144488729903055e-12
3.173224155229187e-12
3.202217171339959e-12
3.231470040765796e-12
3.260985045484081e-12
3.29076448708216e-12
3.320810686922307e-12
3.351125986307522e-12
3.381712746648961e-12
3.412573349634797e-12
3.443710197400128e-12
3.475125712698595e-12
3.506822339075381e-12
3.538802541041397e-12
3.571068804249123e-12
3.603623635669763e-12
3.636469563771835e-12
3.669609138701489e-12
3.703044932463784e-12
3.736779539105937e-12
3.770815574901839e-12
3.80515567853808e-12
3.839802511301572e-12
3.87475875726856e-12
3.910027123495353e-12
3.94561034021064e-12
3.981511161008937e-12
4.017732363046355e-12
4.054276747237183e-12
4.091147138452641e-12
4.128346385721088e-12
4.165877362429616e-12
4.203742966527662e-12
4.241946120732144e-12
4.280489772734025e-12
4.319376895407084e-12
4.358610487017693e-12
4.398193571436974e-12
4.438129198354307e-12
4.478420443492583e-12
4.519070408825326e-12
4.560082222795582e-12
4.60145904053644e-12
4.643204044093458e-12
4.685320442649061e-12
4.727811472748255e-12
4.770680398526809e-12
4.813930511940805e-12
4.857565132998225e-12
4.901587609992552e-12
4.946001319738004e-12
4.990809667806925e-12
5.036016088768832e-12
5.081624046431609e-12
5.127637034084792e-12
5.174058574744303e-12
5.22089222139966e-12
5.268141557263198e-12
5.315810196020778e-12
5.363901782085117e-12
5.412419990851068e-12
5.461368528952383e-12
5.51075113452158e-12
5.56057157745086e-12
5.610833659655807e-12
5.661541215341208e-12
5.712698111268467e-12
5.764308247025815e-12
5.816375555300489e-12
5.868904002152823e-12
5.921897587293019e-12
5.975360344359858e-12
6.029296341201621e-12
6.08370968015974e-12
6.138604498353854e-12
6.193984967970217e-12
6.249855296551665e-12
6.306219727290125e-12
6.363082539321804e-12
6.420448048024106e-12
6.478320605315596e-12
6.536704599958105e-12
6.595604457861189e-12
6.655024642389102e-12
6.714969654670328e-12
6.775444033909454e-12
6.836452357701975e-12
6.897999242350652e-12
6.960089343185688e-12
7.022727354886641e-12
7.085918011806967e-12
7.149666088301571e-12
7.213976399056738e-12
7.278853799422648e-12
7.344303185748605e-12
7.410329495721384e-12
7.476937708705311e-12
7.544132846086392e-12
7.611919971617907e-12
7.680304191769778e-12
7.749290656080015e-12
7.818884557509542e-12
7.889091132799642e-12
7.959915662831995e-12
8.031363472992103e-12
8.103439933535459e-12
8.176150459956295e-12
8.249500513359716e-12
8.323495600836837e-12
8.398141275842434e-12
8.473443138576354e-12
8.5494068363671e-12
8.626038064059186e-12
8.703342564403645e-12
8.781326128450666e-12
8.859994595947081e-12
8.939353855734936e-12
9.019409846155132e-12
9.10016855545329e-12
9.181636022189009e-12
9.263818335648233e-12
9.346721636259961e-12
9.430352116014275e-12
9.514716018885994e-12
9.599819641259944e-12
9.685669332360484e-12
9.772271494684445e-12
9.859632584436857e-12
9.94775911197112e-12
1.00366576422322e-11
1.012633479520279e-11
1.021679724635449e-11
1.03080517271008e-11
1.0400105025255e-11
1.049296398549171e-11
1.058663550981089e-11
1.068112655800678e-11
1.077644414814038e-11
1.087259535701501e-11
1.096958732065625e-11
1.106742723479562e-11
1.116612235535774e-11
1.126567999895238e-11
1.136610754336877e-11
1.14674124280752e-11
1.156960215472251e-11
1.167268428765037e-11
1.177666645439939e-11
1.188155634622546e-11
1.198736171861964e-11
1.209409039183143e-11
1.220175025139632e-11
1.231034924866741e-11
1.24198954013518e-11
1.253039679405043e-11
1.26418615788026e-11
1.27542979756352e-11
1.286771427311538e-11
1.298211882890871e-11
1.309752007034029e-11
1.32139264949622e-11
1.333134667112374e-11
1.344978923854678e-11
1.356926290890643e-11
1.368977646641496e-11
1.381133876841121e-11
1.393395874595465e-11
1.405764540442359e-11
1.41824078241186e-11
1.430825516087089e-11
1.443519664665447e-11
1.456324159020468e-11
1.469239937763987e-11
1.482267947308989e-11
1.495409141932771e-11
1.5086644838407e-11
1.522034943230523e-11
1.535521498357044e-11
1.549125135597395e-11
1.562846849516904e-11
1.576687642935271e-11
1.590648526993451e-11
1.60473052122102e-11
1.618934653604008e-11
1.633261960653306e-11
1.64771348747369e-11
1.66229028783321e-11
1.67699342423333e-11
1.691823967979438e-11
1.706782999252024e-11
1.721871607178421e-11
1.737090889905027e-11
1.752441954670132e-11
1.767925917877412e-11
1.78354390516981e-11
1.799297051504201e-11
1.815186501226474e-11
1.831213408147278e-11
1.847378935618466e-11
1.863684256609893e-11
1.88013055378702e-11
1.896719019589123e-11
1.913450856307945e-11
1.930327276167169e-11
1.947349501402369e-11
1.964518764341662e-11
1.981836307486958e-11
1.999303383595897e-11
2.016921255764357e-11
2.034691197509642e-11
2.052614492854299e-11
2.070692436410707e-11
2.088926333466105e-11
2.107317500068543e-11
2.125867263113249e-11
2.144576960429898e-11
2.1634479408704e-11
2.182481564397539e-11
2.20167920217405e-11
2.221042236652691e-11
2.240572061666788e-11
2.260270082521596e-11
2.280137716086375e-11
2.300176390887123e-11
2.320387547200121e-11
2.340772637146086e-11
2.361333124785167e-11
2.382070486212691e-11
2.402986209655528e-11
2.42408179556933e-11
2.445358756736506e-11
2.466818618364893e-11
2.488462918187258e-11
2.510293206561626e-11
2.532311046572187e-11
2.554518014131317e-11
2.576915698081954e-11
2.599505700301287e-11
2.622289635804786e-11
2.645269132851277e-11
2.668445833048905e-11
2.691821391461647e-11
2.71539747671697e-11
2.739175771114036e-11
2.763157970732995e-11
2.787345785544924e-11
2.811740939522812e-11
2.836345170753193e-11
2.8611602315489e-11
2.886187888562375e-11
2.911429922900163e-11
2.936888130238187e-11
2.962564320937751e-11
2.988460320162794e-11
3.014577967997633e-11
3.040919119565975e-11
3.0674856451507e-11
3.094279430314484e-11
3.121302376021537e-11
3.148556398760234e-11
3.17604343066654e-11
3.20376541964856e-11
3.231724329512123e-11
3.259922140086986e-11
3.288360847354462e-11
3.317042463575684e-11
3.345969017421035e-11
3.375142554100578e-11
3.404565135495355e-11
3.434238840289946e-11
3.464165764105743e-11
3.494348019635478e-11
3.524787736778848e-11
3.555487062778802e-11
3.586448162359432e-11
3.617673217864411e-11
3.649164429396849e-11
3.680924014960002e-11
3.712954210599347e-11
3.745257270545326e-11
3.777835467357725e-11
3.81069109207053e-11
3.843826454338562e-11
3.877243882584766e-11
3.910945724148804e-11
3.944934345436733e-11
3.979212132072065e-11
4.013781489047549e-11
4.048644840878618e-11
4.083804631757554e-11
4.119263325709211e-11
4.15502340674775e-11
4.19108737903457e-11
4.227457767037443e-11
4.264137115691125e-11
4.301127990558719e-11
4.338432977994808e-11
4.376054685309345e-11
4.413995740933279e-11
4.452258794584982e-11
4.490846517438321e-11
4.529761602291928e-11
4.569006763739578e-11
4.608584738341958e-11
4.648498284800188e-11
4.688750184129779e-11
4.7293432398368e-11
4.770280278094945e-11
4.811564147923901e-11
4.85319772136938e-11
4.895183893684339e-11
4.937525583511503e-11
4.980225733067617e-11
5.023287308328586e-11
5.066713299216524e-11
5.110506719788147e-11
5.154670608424151e-11
5.199208028020746e-11
5.244122066181993e-11
5.289415835414072e-11
5.335092473320937e-11
5.381155142801114e-11
5.427607032246504e-11
5.474451355742513e-11
5.521691353269466e-11
5.56933029090585e-11
5.617371461033223e-11
5.665818182542084e-11
5.714673801040081e-11
5.763941689061214e-11
5.813625246276807e-11
5.863727899708476e-11
5.914253103941913e-11
5.965204341342986e-11
6.016585122275354e-11
6.068398985319308e-11
6.120649497493042e-11
6.173340254474706e-11
6.22647488082693e-11
6.280057030222582e-11
6.334090385672493e-11
6.38857865975464e-11
6.443525594845429e-11
6.498934963352529e-11
6.55481056794925e-11
6.611156241811146e-11
6.667975848854176e-11
6.725273283974728e-11
6.783052473291263e-11
6.841317374388244e-11
6.900071976561323e-11
6.959320301064834e-11
7.019066401361172e-11
7.079314363371582e-11
7.140068305729396e-11
7.201332380035077e-11
7.263110771112683e-11
7.325407697269019e-11
7.388227410554332e-11
7.451574197024873e-11
7.515452377007928e-11
7.579866305368116e-11
7.644820371776658e-11
7.710319000981587e-11
7.776366653080928e-11
7.842967823797522e-11
7.910127044755784e-11
7.977848883761071e-11
8.046137945080466e-11
8.114998869726205e-11
8.184436335741258e-11
8.254455058486538e-11
8.325059790930757e-11
8.396255323942614e-11
8.468046486584472e-11
8.540438146408774e-11
8.613435209756958e-11
8.687042622059711e-11
8.761265368140557e-11
8.83610847252077e-11
8.911576999727175e-11
8.98767605460242e-11
9.064410782616673e-11
9.141786370182659e-11
9.219808044972778e-11
9.298481076237995e-11
9.377810775130024e-11
9.457802495025592e-11
9.538461631852616e-11
9.619793624419966e-11
9.701803954748319e-11
9.784498148404674e-11
9.867881774838855e-11
9.951960447722341e-11
1.003673982529035e-10
1.012222561068537e-10
1.020842355230454e-10
1.029533944414882e-10
1.038297912617474e-10
1.047134848464917e-10
1.056045345250696e-10
1.065030000971018e-10
1.074089418361124e-10
1.083224204931826e-10
1.092434973006306e-10
1.101722339757186e-10
1.111086927243896e-10
1.120529362450334e-10
1.130050277322783e-10
1.1396503088081e-10
1.149330098892202e-10
1.159090294638893e-10
1.168931548228865e-10
1.178854516999123e-10
1.188859863482572e-10
1.198948255448038e-10
1.209120365940451e-10
1.219376873321426e-10
1.229718461310113e-10
1.240145819024353e-10
1.25065964102211e-10
1.261260627343297e-10
1.271949483551799e-10
1.282726920777876e-10
1.293593655760945e-10
1.304550410892495e-10
1.315597914259533e-10
1.326736899688202e-10
1.33796810678777e-10
1.349292280995016e-10
1.360710173618812e-10
1.372222541885116e-10
1.383830148982366e-10
1.395533764107023e-10
1.407334162509665e-10
1.419232125541249e-10
1.431228440699812e-10
1.443323901677568e-10
1.455519308408151e-10
1.467815467114459e-10
1.480213190356667e-10
1.492713297080677e-10
1.505316612666976e-10
1.518023968979672e-10
1.530836204416123e-10
1.543754163956793e-10
1.556778699215496e-10
1.569910668490016e-10
1.583150936813174e-10
1.596500376004149e-10
1.609959864720246e-10
1.623530288509082e-10
1.637212539861098e-10
1.651007518262439e-10
1.664916130248323e-10
1.678939289456728e-10
1.693077916682479e-10
1.707332939931736e-10
1.721705294476964e-10
1.736195922912181e-10
1.75080577520865e-10
1.765535808771125e-10
1.78038698849426e-10
1.795360286819622e-10
1.81045668379313e-10
1.825677167122739e-10
1.841022732236746e-10
1.856494382342466e-10
1.872093128485245e-10
1.887819989608026e-10
1.903675992611335e-10
1.91966217241367e-10
1.935779572012278e-10
1.952029242544568e-10
1.968412243349814e-10
1.984929642031291e-10
2.001582514519009e-10
2.018371945132833e-10
2.035299026646023e-10
2.052364860349282e-10
2.069570556115328e-10
2.086917232463865e-10
2.104406016626977e-10
2.122038044615205e-10
2.139814461283932e-10
2.157736420400255e-10
2.175805084710443e-10
2.194021626007883e-10
2.212387225201389e-10
2.230903072384186e-10
2.249570366903319e-10
2.268390317429501e-10
2.28736414202761e-10
2.306493068227659e-10
2.325778333096174e-10
2.345221183308228e-10
2.364822875220014e-10
2.384584674941783e-10
2.404507858411468e-10
2.424593711468892e-10
2.444843529930241e-10
2.465258619663478e-10
2.485840296663892e-10
2.506589887130594e-10
2.527508727543259e-10
2.548598164739587e-10
2.569859555993251e-10
2.591294269092605e-10
2.612903682419595e-10
2.634689185029691e-10
2.656652176731979e-10
2.678794068170156e-10
2.701116280904014e-10
2.723620247491373e-10
2.746307411570892e-10
2.769179227945171e-10
2.79223716266477e-10
2.815482693112537e-10
2.838917308088793e-10
2.862542507897031e-10
2.886359804430195e-10
2.910370721257658e-10
2.934576793712885e-10
2.958979568981526e-10
2.983580606190382e-10
3.008381476496923e-10
3.033383763179365e-10
3.058589061727527e-10
3.083998979934405e-10
3.10961513798813e-10
3.13543916856497e-10
3.161472716922588e-10
3.187717440994442e-10
3.214175011484459e-10
3.240847111962584e-10
3.267735438961097e-10
3.294841702071414e-10
3.32216762404176e-10
3.349714940875521e-10
3.377485401930215e-10
3.405480770017269e-10
3.433702821502574e-10
3.462153346407549e-10
3.490834148511128e-10
3.519747045452557e-10
3.548893868834544e-10
3.57827646432772e-10
3.607896691775244e-10
3.637756425298769e-10
3.667857553404638e-10
3.698201979091176e-10
3.728791619956742e-10
3.759628408308325e-10
3.790714291271138e-10
3.822051230899075e-10
3.853641204285623e-10
3.885486203675893e-10
3.917588236579378e-10
3.949949325883379e-10
3.982571509967533e-10
4.015456842818809e-10
4.048607394147616e-10
4.082025249504649e-10
4.115712510398555e-10
4.149671294414513e-10
4.183903735333515e-10
4.218411983252616e-10
4.25319820470622e-10
4.288264582787819e-10
4.323613317272929e-10
4.359246624742981e-10
4.395166738709662e-10
4.431375909740574e-10
4.467876405585771e-10
4.504670511304833e-10
4.541760529395312e-10
4.579148779921718e-10
4.616837600645804e-10
4.654829347157363e-10
4.693126393006262e-10
4.731731129835505e-10
4.770645967514769e-10
4.809873334275418e-10
4.849415676846323e-10
4.889275460590424e-10
4.929455169642489e-10
4.969957307048027e-10
5.010784394902689e-10
5.051938974493157e-10
5.093423606438848e-10
5.135240870834462e-10
5.177393367393863e-10
5.219883715594854e-10
5.262714554824974e-10
5.30588854452799e-10
5.349408364352344e-10
5.393276714299744e-10
5.437496314875132e-10
5.482069907237895e-10
5.527000253353992e-10
5.572290136149084e-10
5.617942359662915e-10
5.663959749204787e-10
5.710345151509961e-10
5.757101434897344e-10
5.804231489428382e-10
5.851738227066717e-10
5.899624581839302e-10
5.947893509998798e-10
5.996547990186442e-10
6.045591023597035e-10
6.095025634144158e-10
6.1448548686274e-10
6.195081796899955e-10
6.245709512038183e-10
6.296741130511912e-10
6.348179792355992e-10
6.400028661343101e-10
6.452290925158021e-10
6.504969795572705e-10
6.55806850862288e-10
6.611590324786003e-10
6.665538529160016e-10
6.71991643164391e-10
6.774727367119232e-10
6.829974695632852e-10
6.88566180258149e-10
6.941792098896671e-10
6.998369021232069e-10
7.05539603215121e-10
7.11287662031698e-10
7.170814300682687e-10
7.229212614683884e-10
7.288075130431887e-10
7.347405442908881e-10
7.407207174163731e-10
7.467483973510131e-10
7.52823951772505e-10
7.589477511249494e-10
7.651201686390388e-10
7.713415803523475e-10
7.776123651298491e-10
7.839329046844632e-10
7.903035835978819e-10
7.967247893414471e-10
8.03196912297176e-10
8.097203457789914e-10
8.162954860540772e-10
8.229227323643451e-10
8.296024869481025e-10
8.363351550618725e-10
8.431211450023152e-10
8.499608681283544e-10
8.568547388834597e-10
8.638031748180405e-10
8.708065966120381e-10
8.778654280976733e-10
8.849800962823191e-10
8.92151031371597e-10
8.993786667925503e-10
9.066634392170778e-10
9.140057885854332e-10
9.214061581299664e-10
9.288649943990158e-10
9.363827472809077e-10
9.439598700281934e-10
9.51596819282078e-10
9.5929405509689e-10
9.670520409648624e-10
9.748712438410501e-10
9.827521341683413e-10
9.906951859027556e-10
9.987008765388597e-10
1.006769687135367e-09
1.014902102340915e-09
1.023098610420029e-09
1.031359703279293e-09
1.039685876493626e-09
1.048077629332848e-09
1.056535464788337e-09
1.065059889599919e-09
1.073651414282935e-09
1.082310553155541e-09
1.091037824366071e-09
1.099833749920781e-09
1.108698855711594e-09
1.117633671544152e-09
1.126638731166077e-09
1.135714572295333e-09
1.144861736648886e-09
1.154080769971491e-09
1.163372222064698e-09
1.172736646816133e-09
1.182174602228826e-09
1.191686650450911e-09
1.201273357805442e-09
1.210935294820373e-09
1.220673036258915e-09
1.230487161149879e-09
1.240378252818418e-09
1.250346898916893e-09
1.26039369145595e-09
1.270519226835842e-09
1.280724105877985e-09
1.291008933856657e-09
1.301374320530989e-09
1.311820880177182e-09
1.32234923162085e-09
1.33295999826975e-09
1.343653808146561e-09
1.354431293921996e-09
1.365293092948175e-09
1.3762398472921e-09
1.387272203769469e-09
1.398390813978722e-09
1.409596334335227e-09
1.420889426105819e-09
1.43227075544351e-09
1.443740993422474e-09
1.455300816073195e-09
1.466950904417984e-09
1.478691944506632e-09
1.490524627452397e-09
1.502449649468118e-09
1.514467711902758e-09
1.526579521277974e-09
1.538785789325184e-09
1.551087233022658e-09
1.563484574633027e-09
1.575978541740988e-09
1.588569867291299e-09
1.601259289626947e-09
1.614047552527728e-09
1.626935405248919e-09
1.639923602560397e-09
1.653012904785863e-09
1.66620407784244e-09
1.679497893280528e-09
1.692895128323875e-09
1.706396565909984e-09
1.720002994730816e-09
1.733715209273659e-09
1.747534009862413e-09
1.761460202699089e-09
1.775494599905587e-09
1.789638019565759e-09
1.803891285767841e-09
1.818255228647047e-09
1.832730684428536e-09
1.847318495470697e-09
1.862019510308657e-09
1.876834583698095e-09