/*--------------------------------*- C++ -*----------------------------------*\
| =========                 |                                                 |
| \\      /  F ield         | OpenFOAM: The Open Source CFD Toolbox           |
|  \\    /   O peration     | Version:  2412                                  |
|   \\  /    A nd           | Website:  www.openfoam.com                      |
|    \\/     M anipulation  |                                                 |
\*---------------------------------------------------------------------------*/
FoamFile
{
    version     2.0;
    format      ascii;
    arch        "LSB;label=32;scalar=64";
    class       volScalarField;
    location    "8.75";
    object      p;
}
// * * * * * * * * * * * * * * * * * * * * * * * * * * * * * * * * * * * * * //

dimensions      [0 2 -2 0 0 0 0];

internalField   nonuniform List<scalar> 
2200
(
0.778377
0.778554
0.780103
0.785582
0.79908
0.827529
0.880446
0.971102
1.11831
1.33754
1.58639
1.79469
1.93697
2.0281
2.08143
2.11064
2.12489
2.13095
2.13318
2.13343
0.773136
0.773429
0.77519
0.780641
0.794154
0.823425
0.877313
0.969354
1.11635
1.3353
1.58341
1.79281
1.93748
2.02894
2.08179
2.10969
2.12354
2.12902
2.13073
2.1308
0.763927
0.764128
0.766273
0.772457
0.786912
0.816488
0.871528
0.965177
1.11228
1.3332
1.58413
1.7973
1.94304
2.03299
2.08531
2.11274
2.12519
2.13017
2.13154
2.13169
0.750474
0.750666
0.753082
0.759983
0.775461
0.805764
0.861379
0.956673
1.10681
1.33276
1.58805
1.80372
1.95103
2.04193
2.09357
2.11954
2.13142
2.13637
2.13801
2.13834
0.729702
0.729604
0.731966
0.7392
0.75551
0.787642
0.845442
0.94329
1.0978
1.33125
1.59274
1.81301
1.96281
2.05377
2.10497
2.13159
2.14464
2.1502
2.15215
2.15248
0.702896
0.70275
0.704466
0.710236
0.7264
0.760035
0.821546
0.923319
1.08423
1.32693
1.59751
1.82373
1.97537
2.06957
2.12321
2.15106
2.16515
2.17169
2.1741
2.17442
0.670234
0.670677
0.672574
0.677302
0.691051
0.723502
0.786373
0.894273
1.06487
1.31909
1.60046
1.83555
1.99379
2.0909
2.14678
2.17733
2.19307
2.20107
2.2042
2.20444
0.620161
0.620676
0.622887
0.628797
0.643882
0.677132
0.741232
0.853342
1.03429
1.30555
1.60419
1.85018
2.01434
2.11888
2.17991
2.21376
2.2319
2.24053
2.24372
2.2439
0.552442
0.552556
0.555211
0.562556
0.579661
0.61441
0.682738
0.801462
0.994439
1.28562
1.60548
1.86848
2.04664
2.15874
2.22557
2.26283
2.28116
2.28876
2.29197
2.29264
0.472981
0.472496
0.475698
0.485294
0.504687
0.542316
0.613898
0.741313
0.948968
1.26205
1.60916
1.89772
2.09342
2.21655
2.28851
2.32731
2.34562
2.35271
2.35643
2.35767
0.388422
0.387451
0.39023
0.401143
0.423368
0.464628
0.543006
0.680271
0.903669
1.24011
1.61799
1.93909
2.16014
2.298
2.3766
2.41837
2.43789
2.44565
2.44955
2.45113
0.297284
0.296512
0.300573
0.313227
0.338316
0.385089
0.471588
0.622336
0.863929
1.22546
1.64202
2.00564
2.25515
2.4084
2.49609
2.54205
2.5629
2.57165
2.57529
2.57668
0.190646
0.190138
0.192888
0.205486
0.236152
0.295144
0.396625
0.563235
0.827821
1.22541
1.68929
2.0954
2.37353
2.54476
2.64123
2.68965
2.71241
2.72258
2.72563
2.72659
0.0533712
0.053495
0.057895
0.0694733
0.100718
0.167585
0.287867
0.482191
0.78766
1.23905
1.75846
2.20669
2.50932
2.69411
2.79463
2.84588
2.87287
2.88533
2.88839
2.88904
-0.12067
-0.120808
-0.11632
-0.102823
-0.0663181
0.008231
0.142077
0.366836
0.728136
1.25272
1.84011
2.32626
2.6482
2.84436
2.95139
3.00733
3.03911
3.05374
3.05741
3.05798
-0.341415
-0.340791
-0.335096
-0.32251
-0.286524
-0.201479
-0.0460008
0.215479
0.63863
1.24636
1.91193
2.44317
2.78988
3.0014
3.12192
3.18434
3.21743
3.23378
3.23908
3.23994
-0.615072
-0.61523
-0.608758
-0.591931
-0.551975
-0.463348
-0.289474
0.0140686
0.507808
1.206
1.96221
2.55981
2.9444
3.17861
3.31492
3.38788
3.42111
3.43795
3.44421
3.44506
-0.933986
-0.934115
-0.927337
-0.906319
-0.856087
-0.75389
-0.563608
-0.225257
0.335929
1.13119
1.9946
2.67846
3.11716
3.38417
3.54059
3.62375
3.65747
3.67304
3.67979
3.68077
-1.31696
-1.31605
-1.3076
-1.28417
-1.22445
-1.10407
-0.883023
-0.495911
0.143902
1.04143
2.02331
2.81376
3.32199
3.62432
3.79895
3.88758
3.92371
3.93923
3.94619
3.94689
-1.7652
-1.76476
-1.75572
-1.7275
-1.65816
-1.52022
-1.26246
-0.804667
-0.0617057
0.961245
2.07773
2.97673
3.55588
3.89703
4.08264
4.17544
4.21648
4.23303
4.24063
4.24138
-2.31577
-2.31377
-2.30198
-2.26648
-2.17913
-2.00981
-1.6941
-1.14652
-0.268813
0.913265
2.18414
3.19049
3.82785
4.19931
4.3936
4.48953
4.53581
4.55498
4.56385
4.56439
-2.97638
-2.9744
-2.96284
-2.92502
-2.82199
-2.60462
-2.20241
-1.52355
-0.467294
0.910249
2.35139
3.46256
4.15625
4.54221
4.7356
4.83401
4.88354
4.90447
4.91507
4.91553
-3.8157
-3.81052
-3.78651
-3.72766
-3.5926
-3.31264
-2.79665
-1.94069
-0.662872
0.947661
2.58605
3.79552
4.52197
4.92182
5.11451
5.20938
5.26138
5.2849
5.29763
5.29821
-4.83227
-4.82687
-4.80371
-4.72223
-4.52171
-4.13612
-3.46142
-2.39127
-0.85935
1.00853
2.86323
4.17817
4.93695
5.33344
5.52719
5.62167
5.67032
5.69664
5.71258
5.71353
-6.17388
-6.14681
-6.07134
-5.91388
-5.61057
-5.07353
-4.19748
-2.87119
-1.06302
1.08126
3.16697
4.59951
5.39108
5.78771
5.97595
6.05579
6.08951
6.11203
6.13236
6.13079
-7.87145
-7.81351
-7.66081
-7.36239
-6.87016
-6.11186
-4.98254
-3.35381
-1.24482
1.192
3.51307
5.06888
5.88795
6.28094
6.45099
6.503
6.50623
6.50026
6.49078
6.50178
-9.9752
-9.7953
-9.44015
-8.92785
-8.19995
-7.17678
-5.75299
-3.79243
-1.35204
1.41672
3.99957
5.6924
6.57418
6.96603
7.10543
7.1514
7.1558
7.15473
7.14168
7.15698
-12.2779
-11.7984
-11.2051
-10.4867
-9.52455
-8.22352
-6.46965
-4.15474
-1.35294
1.79104
4.69312
6.54731
7.49605
7.90711
8.06543
8.13882
8.15488
8.16876
8.16909
8.18194
-14.4331
-13.7541
-12.9781
-12.0563
-10.8344
-9.22529
-7.11479
-4.42501
-1.2428
2.28418
5.49039
7.48773
8.4715
8.91099
9.10693
9.17971
9.21825
9.23788
9.24655
9.25281
-16.0685
-15.3181
-14.5
-13.4575
-12.0438
-10.1538
-7.68718
-4.61219
-1.04127
2.85149
6.32877
8.449
9.47763
9.92441
10.1418
10.2297
10.2732
10.2996
10.314
10.3198
-17.4975
-16.6032
-15.7593
-14.6083
-13.0195
-10.9076
-8.15049
-4.72099
-0.798039
3.39707
7.11628
9.36745
10.4271
10.9501
11.179
11.2727
11.319
11.3404
11.3503
11.3536
-18.5546
-17.5871
-16.7836
-15.5501
-13.811
-11.5178
-8.52272
-4.78047
-0.580004
3.85536
7.81305
10.2069
11.3739
11.9333
12.1659
12.257
12.3005
12.3225
12.3368
12.3402
-19.3174
-18.3792
-17.596
-16.2324
-14.4026
-12.0014
-8.8251
-4.83058
-0.411168
4.24478
8.45409
10.9935
12.2565
12.835
13.063
13.1601
13.2195
13.2545
13.2743
13.2762
-19.9051
-18.9969
-18.1687
-16.7618
-14.8753
-12.376
-9.05393
-4.86901
-0.255145
4.63574
9.04813
11.721
13.0394
13.6298
13.8851
14.0078
14.0745
14.1138
14.1403
14.1394
-20.3263
-19.4331
-18.5725
-17.1715
-15.247
-12.6626
-9.21364
-4.88737
-0.0885897
5.0202
9.58494
12.3624
13.7281
14.3582
14.6415
14.7804
14.8636
14.9095
14.9368
14.9381
-20.6149
-19.7285
-18.854
-17.4276
-15.5092
-12.8548
-9.32565
-4.88194
0.067563
5.3456
10.0324
12.901
14.3341
15.0123
15.3318
15.491
15.5818
15.6397
15.6781
15.6768
-20.8038
-19.9567
-18.9993
-17.572
-15.6431
-12.968
-9.38132
-4.86914
0.177316
5.56897
10.3696
13.3381
14.8592
15.604
15.9578
16.1381
16.2454
16.3057
16.3462
16.3453
-20.9319
-20.0972
-19.0816
-17.6249
-15.6839
-13.0035
-9.39714
-4.86034
0.230384
5.69095
10.6075
13.6934
15.3153
16.1279
16.5222
16.7231
16.8417
16.9164
16.9695
16.9644
-21.0186
-20.1877
-19.14
-17.6226
-15.6542
-12.9834
-9.38679
-4.85282
0.248309
5.75019
10.7783
13.9889
15.7079
16.5868
17.0269
17.2563
17.394
17.4734
17.5369
17.5297
-21.0724
-20.2541
-19.1736
-17.609
-15.596
-12.9265
-9.35117
-4.83219
0.265709
5.79386
10.9138
14.2427
16.0533
16.9949
17.4713
17.7265
17.8857
17.983
18.0565
18.0463
-21.1183
-20.2965
-19.1959
-17.6014
-15.5477
-12.8525
-9.28689
-4.78352
0.308539
5.85171
11.0338
14.4603
16.3509
17.3479
17.8609
18.1463
18.338
18.4559
18.53
18.5149
-21.1571
-20.3346
-19.2173
-17.6105
-15.5241
-12.7821
-9.20403
-4.7072
0.38045
5.92732
11.1429
14.6396
16.597
17.6479
18.2067
18.521
18.7383
18.8688
18.9515
18.9355
-21.1947
-20.3732
-19.2469
-17.632
-15.5275
-12.7332
-9.12564
-4.62132
0.464928
6.00621
11.2369
14.7796
16.7863
17.8849
18.4998
18.861
19.1004
19.2359
19.3164
19.3093
-21.2367
-20.4144
-19.2837
-17.6669
-15.5556
-12.7202
-9.0807
-4.55599
0.535026
6.06802
11.3075
14.8756
16.9148
18.0594
18.7434
19.1693
19.4552
19.5864
19.6294
19.6432
-21.2848
-20.4664
-19.3195
-17.7239
-15.6083
-12.7586
-9.0954
-4.5415
0.563226
6.09441
11.3445
14.9249
16.983
18.1717
18.9325
19.4474
19.8041
19.9831
19.9525
19.9469
-21.3507
-20.528
-19.3771
-17.7983
-15.6965
-12.8612
-9.18906
-4.60383
0.523987
6.06972
11.3352
14.9248
16.9967
18.2312
19.0649
19.676
20.1535
20.4541
20.4314
20.2263
-21.4359
-20.6058
-19.4548
-17.8929
-15.8221
-13.0203
-9.35285
-4.74005
0.415952
5.99144
11.2691
14.8642
16.9508
18.2354
19.1322
19.8361
20.4552
21.0105
21.1467
20.9925
-21.535
-20.6975
-19.5509
-18.0043
-15.9707
-13.2086
-9.55641
-4.9258
0.253578
5.8588
11.1335
14.7259
16.8186
18.1601
19.1041
19.876
20.5757
21.0948
21.1464
21.0111
-21.64
-20.7997
-19.6669
-18.1289
-16.1285
-13.4003
-9.77036
-5.13377
0.0593627
5.68278
10.9351
14.5134
16.6091
17.9791
18.9253
19.6707
20.3161
20.6966
20.6615
20.5401
-21.7472
-20.9138
-19.8025
-18.2757
-16.2984
-13.5883
-9.98717
-5.35727
-0.16171
5.46455
10.6824
14.2373
16.3345
17.6785
18.5882
19.2565
19.7235
19.9195
19.8754
19.8383
-21.8505
-21.0474
-19.959
-18.4507
-16.4863
-13.7821
-10.2055
-5.59584
-0.40816
5.20649
10.3883
13.9115
15.9894
17.2631
18.0923
18.6497
18.9815
19.1096
19.0573
19.0665
-21.9518
-21.1944
-20.1304
-18.6501
-16.6942
-13.982
-10.4225
-5.84723
-0.677225
4.91389
10.0651
13.5453
15.5658
16.7442
17.4692
17.9205
18.1609
18.1756
18.034
18.1352
-22.0513
-21.3339
-20.2947
-18.842
-16.8959
-14.1708
-10.6223
-6.09082
-0.951231
4.60479
9.7243
13.1437
15.0692
16.1341
16.7407
17.0606
17.1749
17.1031
16.9571
17.0644
-22.1387
-21.4398
-20.4153
-18.9847
-17.0545
-14.3174
-10.7822
-6.29469
-1.20014
4.30686
9.37657
12.7086
14.5169
15.4474
15.9251
16.1281
16.1067
15.8467
15.5426
15.5645
-22.2055
-21.5019
-20.4763
-19.053
-17.1453
-14.4093
-10.8913
-6.44413
-1.40392
4.0379
9.02201
12.2441
13.9285
14.7187
15.0543
15.1238
14.9565
14.293
13.3251
13.2377
-22.2464
-21.5207
-20.4807
-19.0547
-17.168
-14.4445
-10.9492
-6.54401
-1.55984
3.80157
8.6606
11.7578
13.3219
13.9809
14.1657
14.0665
13.7281
12.6879
10.701
8.96251
-22.2571
-21.5064
-20.4463
-19.0048
-17.1367
-14.4321
-10.9639
-6.60522
-1.67776
3.59441
8.30259
11.2718
12.7259
13.2736
13.3134
13.0174
12.4503
11.4472
8.36066
0.191423
-22.2457
-21.4675
-20.3849
-18.9326
-17.0678
-14.3838
-10.9461
-6.63613
-1.77062
3.40502
7.9512
10.7904
12.1404
12.608
12.5347
12.0789
11.4054
10.6885
10.2295
7.13679
-22.2124
-21.4188
-20.3192
-18.853
-16.9805
-14.322
-10.9147
-6.6585
-1.86459
3.20466
7.59673
10.3111
11.5673
12.0013
11.9155
11.5069
11.02
10.9031
11.6793
10.9306
-22.1598
-21.3599
-20.2519
-18.7716
-16.9042
-14.2624
-10.8896
-6.69322
-1.97769
2.98156
7.24009
9.85227
11.0358
11.4953
11.5202
11.3251
11.0628
10.9766
11.4039
10.9785
-22.0959
-21.2929
-20.1833
-18.7002
-16.8282
-14.2165
-10.8819
-6.75097
-2.1167
2.73837
6.88244
9.42866
10.5743
11.114
11.311
11.3214
11.1833
10.9425
11.0394
10.9917
-22.0029
-21.2116
-20.1078
-18.6239
-16.7599
-14.1772
-10.8905
-6.82934
-2.27673
2.48362
6.53173
9.0462
10.2125
10.8581
11.1999
11.3569
11.2979
11.0473
11.1384
11.1767
-21.8981
-21.1021
-20.0108
-18.5422
-16.6773
-14.1389
-10.9029
-6.9152
-2.44624
2.22801
6.20338
8.70294
9.96237
10.7034
11.1384
11.3896
11.452
11.3003
11.3999
11.4337
-21.7402
-20.9717
-19.8924
-18.4265
-16.5836
-14.086
-10.9061
-6.99481
-2.6103
1.98376
5.91006
8.42205
9.77702
10.6128
11.1138
11.4419
11.6453
11.6373
11.7195
11.7317
-21.5519
-20.7789
-19.7088
-18.2929
-16.4579
-14.007
-10.8886
-7.05661
-2.75708
1.76114
5.65448
8.19268
9.6384
10.558
11.1286
11.5355
11.8821
12.0051
12.0859
12.0884
-21.2982
-20.5488
-19.487
-18.0915
-16.2875
-13.8927
-10.8396
-7.09254
-2.88063
1.56435
5.43278
8.00147
9.52657
10.5251
11.1919
11.6846
12.1098
12.3407
12.4442
12.4471
-20.9733
-20.2339
-19.1924
-17.8308
-16.064
-13.7301
-10.7527
-7.09933
-2.97894
1.3911
5.2367
7.83216
9.43155
10.5258
11.2952
11.8594
12.3333
12.6135
12.7251
12.7286
-20.5674
-19.8377
-18.8141
-17.4963
-15.7782
-13.5178
-10.6271
-7.07693
-3.05523
1.23424
5.05423
7.67381
9.34746
10.5379
11.3987
12.0191
12.5022
12.8235
12.9524
12.9688
-20.0285
-19.3451
-18.36
-17.078
-15.4304
-13.2564
-10.4641
-7.02938
-3.11522
1.08533
4.87118
7.51169
9.26174
10.5383
11.4707
12.1392
12.6589
13.0472
13.213
13.2402
-19.3162
-18.7095
-17.7678
-16.5688
-15.0158
-12.9444
-10.2674
-6.96148
-3.16598
0.934057
4.67449
7.32932
9.15137
10.5084
11.5167
12.2576
12.8419
13.2986
13.5073
13.544
-18.4535
-17.9151
-17.0762
-15.9753
-14.5321
-12.5853
-10.041
-6.87813
-3.21422
0.772863
4.45014
7.10437
8.9924
10.4395
11.5383
12.3557
12.9892
13.4776
13.7245
13.7745
-17.4194
-16.9798
-16.2644
-15.3053
-14.0017
-12.1948
-9.79455
-6.78602
-3.2686
0.588582
4.1785
6.81938
8.76241
10.2845
11.444
12.2917
12.9358
13.4275
13.7089
13.7799
-16.1857
-15.9608
-15.3995
-14.585
-13.4365
-11.7839
-9.54074
-6.69992
-3.3424
0.367209
3.83894
6.4409
8.39067
9.91935
11.0762
11.9154
12.5578
13.0605
13.3772
13.4731
-15.0441
-14.902
-14.5419
-13.9036
-12.9052
-11.3953
-9.30958
-6.63644
-3.44828
0.087318
3.39616
5.90598
7.79055
9.25718
10.3731
11.2003
11.8449
12.3599
12.7006
12.8194
-14.3378
-14.2449
-13.927
-13.366
-12.4681
-11.0761
-9.11953
-6.60274
-3.59765
-0.276508
2.82084
5.17889
6.9363
8.29973
9.35457
10.1581
10.7869
11.2839
11.6355
11.7817
-13.986
-13.9071
-13.6968
-13.1565
-12.2545
-10.8754
-8.98895
-6.60836
-3.80044
-0.722825
2.12344
4.28994
5.89189
7.1258
8.08455
8.81019
9.36194
9.78437
10.0915
10.247
-13.9701
-13.9144
-13.9817
-13.4057
-12.3144
-10.8009
-8.90138
-6.622
-4.00245
-1.15987
1.46463
3.4652
4.94117
6.06731
6.92516
7.53068
7.95929
8.26958
8.48163
8.58617
-15.1081
-15.1734
-15.1984
-13.9811
-12.4682
-10.7444
-8.79588
-6.58823
-4.1336
-1.50302
0.914427
2.75045
4.10333
5.12861
5.88521
6.38473
6.71488
6.93871
7.07377
7.12825
-15.5376
-15.9093
-15.4648
-13.8985
-12.2337
-10.4504
-8.53329
-6.43486
-4.16019
-1.74948
0.423709
2.05367
3.23539
4.11088
4.73802
5.13059
5.37753
5.53643
5.62742
5.66185
-13.1774
-13.3909
-13.0956
-12.1851
-10.9622
-9.48259
-7.83392
-6.00281
-3.99701
-1.86553
0.0226344
1.42344
2.40999
3.12365
3.62746
3.93744
4.13114
4.25568
4.32764
4.35824
-9.15659
-9.23066
-9.20192
-8.98589
-8.50782
-7.68559
-6.58031
-5.19686
-3.58544
-1.83877
-0.276614
0.889815
1.68374
2.25256
2.66172
2.91643
3.07681
3.18138
3.24444
3.26925
-5.47298
-5.52295
-5.60683
-5.70126
-5.69099
-5.45917
-4.94043
-4.09204
-2.96915
-1.67825
-0.462181
0.480011
1.10817
1.56081
1.90113
2.11069
2.24284
2.33502
2.39341
2.41786
-2.74444
-2.79487
-2.91038
-3.08974
-3.27567
-3.35795
-3.25435
-2.87972
-2.2376
-1.39196
-0.516512
0.220591
0.714855
1.0714
1.35894
1.52761
1.63564
1.72018
1.77245
1.79592
-1.06033
-1.10187
-1.20712
-1.36466
-1.54835
-1.71379
-1.81086
-1.75071
-1.48142
-1.00923
-0.432639
0.109151
0.49865
0.762004
1.00718
1.13723
1.23016
1.2997
1.33951
1.35521
-0.161202
-0.195879
-0.286628
-0.416698
-0.555752
-0.683316
-0.802309
-0.863687
-0.810612
-0.596214
-0.252663
0.121941
0.400708
0.604256
0.78437
0.889216
0.962079
1.01217
1.03836
1.04675
0.286159
0.253779
0.164564
0.04204
-0.0733504
-0.159177
-0.243087
-0.307505
-0.321294
-0.238589
-0.0468298
0.191433
0.383546
0.530515
0.658609
0.733413
0.783456
0.813872
0.827609
0.831231
0.459873
0.435736
0.35509
0.241205
0.139544
0.0700268
0.0115937
-0.029486
-0.0369991
0.00888753
0.119009
0.267749
0.398695
0.500346
0.586323
0.635951
0.661237
0.673265
0.676876
0.677842
0.498571
0.482329
0.416307
0.314423
0.219436
0.147384
0.0961138
0.0744985
0.0904474
0.139719
0.217834
0.320572
0.410656
0.475158
0.526841
0.549799
0.560113
0.563177
0.562522
0.561979
0.478232
0.46745
0.417552
0.333061
0.242276
0.162217
0.100719
0.083039
0.114965
0.177157
0.25282
0.336736
0.3994
0.432895
0.4581
0.463625
0.465961
0.465825
0.463656
0.462098
0.42788
0.420726
0.386952
0.327918
0.255024
0.17743
0.100013
0.0669346
0.0911847
0.155999
0.235577
0.309838
0.353622
0.365071
0.376343
0.376892
0.375136
0.372799
0.370064
0.368259
0.363928
0.359242
0.339419
0.30564
0.262395
0.207066
0.133154
0.0834151
0.0787077
0.119391
0.187482
0.246251
0.275351
0.278334
0.28427
0.284902
0.283273
0.281807
0.280115
0.279167
0.303413
0.30094
0.29176
0.275547
0.257934
0.230863
0.182113
0.13559
0.103417
0.10336
0.13639
0.169856
0.189828
0.193267
0.197656
0.196065
0.195976
0.19703
0.197114
0.196978
0.256891
0.255912
0.253357
0.24759
0.243797
0.235745
0.21326
0.185631
0.146898
0.116345
0.106728
0.112441
0.126821
0.130178
0.134427
0.129064
0.126721
0.126574
0.125846
0.125416
0.226289
0.225566
0.22556
0.223903
0.224336
0.223255
0.214385
0.204903
0.17611
0.138669
0.105286
0.0906993
0.0961114
0.0934405
0.094641
0.0881332
0.0820953
0.0766708
0.0717516
0.0702627
0.208507
0.207325
0.206719
0.203651
0.20118
0.196878
0.190329
0.189535
0.173093
0.146445
0.116386
0.0931288
0.0876675
0.0758013
0.0710942
0.061933
0.0529775
0.0435054
0.034389
0.0320245
0.197078
0.195232
0.191971
0.184224
0.175354
0.163263
0.151906
0.150906
0.14447
0.137281
0.124114
0.100118
0.088394
0.0689308
0.057459
0.044271
0.0322385
0.0206763
0.00882483
0.00603182
0.182965
0.181237
0.175418
0.163914
0.150965
0.133619
0.117445
0.111788
0.108124
0.114499
0.117104
0.0992485
0.0892088
0.0641687
0.0492772
0.0314185
0.0171228
0.00547916
-0.00859799
-0.0109556
0.160992
0.159456
0.152918
0.142002
0.131368
0.11604
0.0994021
0.0887712
0.0792577
0.0816745
0.088443
0.0781516
0.0744324
0.0512442
0.0356761
0.019368
0.00547335
-0.00323276
-0.0173157
-0.0186408
0.129493
0.128852
0.123811
0.11692
0.112855
0.10449
0.09245
0.07977
0.0602373
0.0512359
0.051367
0.0407382
0.0428336
0.025958
0.0182094
0.00758125
-0.00158258
-0.00610265
-0.0164239
-0.0166977
0.0931699
0.0924802
0.0898434
0.0868198
0.0867051
0.0829403
0.0777658
0.069809
0.0490389
0.0333012
0.0252796
0.00931197
0.0124308
0.00440699
0.00363438
-0.00160766
-0.00645599
-0.00679417
-0.0127034
-0.0126783
0.057292
0.057088
0.0549679
0.0530908
0.0532888
0.0478206
0.0469333
0.0478549
0.0359465
0.0237253
0.0144843
-0.00352671
-0.000245875
-0.00547372
-0.0026946
-0.00309096
-0.0066681
-0.00592911
-0.0104355
-0.00972106
0.0242317
0.0257419
0.0230322
0.0202471
0.019713
0.0126502
0.0132803
0.0162239
0.0117362
0.00975062
0.00733543
-0.00332609
-0.000131784
-0.00382262
-0.00158941
0.00106042
-0.00127242
6.86876e-05
-0.0055836
-0.00479114
13.1157
16.4476
17.1741
18.1769
18.9563
19.6287
20.1966
20.6424
20.9087
20.8354
16.5522
18.1094
18.5272
19.1437
19.6569
20.0803
20.4108
20.6345
20.7155
20.6256
18.2647
19.0145
19.3518
19.7251
20.0396
20.2949
20.4864
20.6054
20.6408
20.6329
19.1975
19.6474
19.8635
20.0889
20.2745
20.4228
20.5303
20.599
20.6292
20.6484
19.8028
20.0275
20.1629
20.3008
20.4161
20.5092
20.5781
20.6237
20.6465
20.6761
20.1224
20.2836
20.3543
20.4542
20.5247
20.5831
20.6286
20.6631
20.6856
20.7109
20.3494
20.4588
20.4927
20.5651
20.6101
20.6506
20.6842
20.7106
20.7288
20.7543
20.5138
20.5838
20.6132
20.6533
20.6877
20.7172
20.7421
20.7646
20.7829
20.805
20.6439
20.688
20.7117
20.7355
20.7607
20.7838
20.8046
20.8248
20.8414
20.8621
20.7522
20.7798
20.7998
20.8176
20.8362
20.8546
20.8716
20.8885
20.901
20.9199
20.8508
20.8696
20.8863
20.9011
20.9159
20.9297
20.9418
20.9539
20.9621
20.9785
20.9433
20.9572
20.9722
20.985
20.9964
21.007
21.0165
21.0253
21.0294
21.0411
21.0349
21.0462
21.0604
21.0703
21.0783
21.0862
21.0939
21.1007
21.1023
21.1098
21.1357
21.1406
21.149
21.1543
21.1579
21.1623
21.1682
21.1759
21.1795
21.189
21.2508
21.2375
21.2296
21.2235
21.2207
21.222
21.2281
21.2406
21.2552
21.2848
21.3708
21.3147
21.2844
21.2672
21.259
21.2591
21.268
21.287
21.3185
21.3878
)
;

boundaryField
{
    wall-4
    {
        type            zeroGradient;
    }
    pressure-outlet-7
    {
        type            fixedValue;
        value           uniform 0;
    }
    velocity-inlet-6
    {
        type            zeroGradient;
    }
    velocity-inlet-5
    {
        type            zeroGradient;
    }
    frontAndBackPlanes
    {
        type            empty;
    }
}


// ************************************************************************* //
