/*--------------------------------*- C++ -*----------------------------------*\
| =========                 |                                                 |
| \\      /  F ield         | OpenFOAM: The Open Source CFD Toolbox           |
|  \\    /   O peration     | Version:  2412                                  |
|   \\  /    A nd           | Website:  www.openfoam.com                      |
|    \\/     M anipulation  |                                                 |
\*---------------------------------------------------------------------------*/
FoamFile
{
    version     2.0;
    format      ascii;
    arch        "LSB;label=32;scalar=64";
    class       surfaceScalarField;
    location    "8.75";
    object      phi;
}
// * * * * * * * * * * * * * * * * * * * * * * * * * * * * * * * * * * * * * //

dimensions      [0 3 -1 0 0 0 0];

oriented        oriented;

internalField   nonuniform List<scalar> 
4262
(
-0.00163524
0.222148
-0.00381225
0.83083
-0.00609165
1.76942
-0.00851812
3.16759
-0.0116808
5.18777
-0.0147856
8.01747
-0.0175975
11.85
-0.0197897
16.8219
-0.0224096
22.8844
-0.0229926
29.5289
-0.0228432
29.5282
-0.0213285
22.8803
-0.0189386
16.8173
-0.0153939
11.8436
-0.0119819
8.01095
-0.0089225
5.18154
-0.00664647
3.16289
-0.00484553
1.76534
-0.00274203
0.82655
0.217771
-0.00385985
0.226008
-0.00936903
0.836339
-0.0162916
1.77635
-0.0241327
3.17543
-0.0330852
5.19672
-0.042163
8.02655
-0.0513647
11.8592
-0.0617737
16.8323
-0.0722489
22.8949
-0.0710746
29.5278
-0.0661793
29.5233
-0.0580818
22.8722
-0.0498318
16.8091
-0.0412927
11.8351
-0.0332186
8.00288
-0.0262431
5.17457
-0.0187543
3.1554
-0.0123397
1.75893
-0.00533129
0.819541
0.212439
-0.00659506
0.232603
-0.0157786
0.845523
-0.0272961
1.78786
-0.0410679
3.18921
-0.0558477
5.2115
-0.0704512
8.04115
-0.0857508
11.8745
-0.0974542
16.844
-0.111254
22.9087
-0.111634
29.5281
-0.10818
29.5199
-0.0990902
22.8631
-0.0848935
16.7949
-0.0692555
11.8194
-0.0538611
7.98748
-0.0405975
5.16131
-0.028263
3.14307
-0.0160969
1.74676
-0.00578265
0.809227
0.206657
-0.00974017
0.242343
-0.0235064
0.859289
-0.0398137
1.80417
-0.0580516
3.20744
-0.0776514
5.2311
-0.0966848
8.06018
-0.117659
11.8954
-0.136037
16.8624
-0.157635
22.9303
-0.157423
29.5279
-0.148726
29.5112
-0.132359
22.8468
-0.111064
16.7736
-0.0922917
11.8006
-0.0718838
7.96708
-0.0521343
5.14156
-0.0348319
3.12576
-0.0194693
1.7314
-0.00642135
0.796179
0.200235
-0.0128099
0.255153
-0.0303842
0.876863
-0.0515453
1.82533
-0.0753712
3.23127
-0.100447
5.25617
-0.125036
8.08477
-0.150079
11.9205
-0.171392
16.8837
-0.195857
22.9548
-0.195641
29.5277
-0.188572
29.5041
-0.171438
22.8296
-0.145028
16.7472
-0.115676
11.7713
-0.0870412
7.93844
-0.064223
5.11874
-0.042802
3.10434
-0.02315
1.71175
-0.00704508
0.780074
0.19319
-0.0165231
0.271676
-0.0395313
0.899871
-0.0659083
1.85171
-0.095378
3.26074
-0.126791
5.28759
-0.155594
8.11358
-0.183199
11.9481
-0.21231
16.9128
-0.243081
22.9855
-0.242943
29.5276
-0.229704
29.4908
-0.202385
22.8023
-0.168823
16.7136
-0.13557
11.738
-0.105975
7.90885
-0.0766447
5.08941
-0.0503738
3.07807
-0.0278306
1.6892
-0.0089708
0.761214
0.184219
-0.0181537
0.28983
-0.0424965
0.924214
-0.0713791
1.88059
-0.105196
3.29456
-0.14335
5.32574
-0.18348
8.15371
-0.217102
11.9817
-0.250217
16.946
-0.282583
23.0179
-0.281168
29.5262
-0.268315
29.478
-0.238658
22.7726
-0.20334
16.6783
-0.160033
11.6947
-0.121326
7.87014
-0.0884768
5.05656
-0.0593248
3.04892
-0.0341383
1.66402
-0.0121708
0.739247
0.172049
-0.0164169
0.306247
-0.0446516
0.952449
-0.0794274
1.91537
-0.119002
3.33413
-0.163599
5.37034
-0.211483
8.20159
-0.254917
12.0251
-0.295244
16.9863
-0.333127
23.0558
-0.33123
29.5243
-0.310988
29.4578
-0.270424
22.7321
-0.224833
16.6327
-0.180842
11.6507
-0.142964
7.83226
-0.104768
5.01836
-0.0703043
3.01446
-0.0402065
1.63392
-0.01532
0.71436
0.156729
-0.01735
0.323597
-0.0505762
0.985675
-0.0909462
1.95574
-0.135992
3.37918
-0.182915
5.41726
-0.234952
8.25363
-0.286328
12.0765
-0.335289
17.0352
-0.377603
23.0981
-0.373519
29.5202
-0.349842
29.4341
-0.309002
22.6912
-0.265734
16.5895
-0.212304
11.5973
-0.161604
7.78156
-0.116804
4.97356
-0.078036
2.97569
-0.0445442
1.60043
-0.0183919
0.688208
0.138337
-0.0224716
0.346068
-0.0615009
1.0247
-0.105965
2.0002
-0.153465
3.42668
-0.207494
5.47129
-0.268173
8.31431
-0.328702
12.137
-0.383976
17.0905
-0.433027
23.1472
-0.428445
29.5156
-0.400194
29.4058
-0.351936
22.643
-0.292844
16.5304
-0.236046
11.5405
-0.179789
7.7253
-0.125339
4.91911
-0.0786894
2.92904
-0.0419147
1.56365
-0.0181527
0.664446
0.120184
-0.0300376
0.376106
-0.0794452
1.07411
-0.128769
2.04952
-0.182108
3.48002
-0.237321
5.5265
-0.296533
8.37352
-0.361707
12.2022
-0.426476
17.1553
-0.483715
23.2044
-0.479753
29.5116
-0.449767
29.3758
-0.398404
22.5916
-0.338083
16.47
-0.266748
11.4692
-0.195083
7.65364
-0.133455
4.85748
-0.0787517
2.87434
-0.0339886
1.51889
-0.0143752
0.644833
0.105809
-0.0370562
0.413162
-0.0950794
1.13213
-0.147784
2.10223
-0.205186
3.53742
-0.271464
5.59278
-0.342841
8.4449
-0.413657
12.273
-0.482992
17.2246
-0.544909
23.2663
-0.542882
29.5096
-0.512609
29.3456
-0.45182
22.5308
-0.370991
16.3892
-0.290761
11.3889
-0.215235
7.57811
-0.141985
4.78423
-0.0782346
2.81059
-0.0273015
1.46796
-0.0115021
0.629033
0.0943066
-0.044677
0.457839
-0.112753
1.20021
-0.172985
2.16246
-0.236787
3.60122
-0.30548
5.66147
-0.380082
8.5195
-0.457647
12.3506
-0.538558
17.3055
-0.604317
23.3321
-0.607195
29.5125
-0.576611
29.315
-0.507256
22.4615
-0.422158
16.3041
-0.328461
11.2953
-0.237589
7.48724
-0.156912
4.70356
-0.0860736
2.73975
-0.029158
1.41104
-0.0123443
0.61222
0.0819624
-0.0457781
0.503617
-0.117016
1.27145
-0.183111
2.22856
-0.26187
3.67998
-0.346447
5.74605
-0.434664
8.60771
-0.520076
12.436
-0.607937
17.3934
-0.679392
23.4035
-0.684616
29.5177
-0.651755
29.2821
-0.570782
22.3805
-0.46429
16.1976
-0.358834
11.1898
-0.264276
7.39268
-0.177685
4.61697
-0.101724
2.66379
-0.0401105
1.34943
-0.0168539
0.588963
0.0651084
-0.0530084
0.556625
-0.135933
1.35437
-0.207192
2.29981
-0.288021
3.76081
-0.383677
5.8417
-0.486803
8.71084
-0.589676
12.5389
-0.687851
17.4916
-0.761883
23.4776
-0.768336
29.5242
-0.725411
29.2392
-0.629558
22.2846
-0.518122
16.0862
-0.402165
11.0738
-0.294662
7.28518
-0.202864
4.52517
-0.122828
2.58375
-0.0546259
1.28122
-0.0225342
0.556871
0.0425742
-0.0506205
0.607246
-0.130394
1.43415
-0.218581
2.388
-0.325002
3.86723
-0.434433
5.95114
-0.546203
8.82261
-0.662037
12.6547
-0.781953
17.6115
-0.865898
23.5615
-0.868351
29.5266
-0.807936
29.1788
-0.696676
22.1734
-0.566137
15.9557
-0.440511
10.9482
-0.326045
7.17071
-0.220321
4.41945
-0.13457
2.498
-0.0646612
1.21132
-0.0268372
0.519047
0.015737
-0.0638867
0.671133
-0.156372
1.52663
-0.24663
2.47826
-0.358679
3.97928
-0.487872
6.08033
-0.622483
8.95722
-0.760076
12.7923
-0.892052
17.7435
-0.978371
23.6478
-0.974923
29.5232
-0.901946
29.1058
-0.775086
22.0465
-0.635911
15.8165
-0.494117
10.8064
-0.356579
7.03318
-0.236451
4.29932
-0.142355
2.4039
-0.0724807
1.14144
-0.0304956
0.477062
-0.0147586
-0.0655052
0.736638
-0.169548
1.63067
-0.2879
2.59661
-0.422315
4.11369
-0.557581
6.2156
-0.705541
9.10518
-0.858606
12.9454
-1.02118
17.906
-1.11507
23.7417
-1.10372
29.5118
-1.01629
29.0184
-0.871884
21.9021
-0.70402
15.6486
-0.541348
10.6437
-0.390255
6.88208
-0.257497
4.16656
-0.146082
2.29249
-0.0747266
1.07009
-0.0318993
0.434235
-0.0466579
-0.0812136
0.817851
-0.198393
1.74785
-0.324462
2.72268
-0.471753
4.26098
-0.631086
6.37493
-0.800258
9.27435
-0.977816
13.1229
-1.15996
18.0882
-1.25983
23.8416
-1.24595
29.4979
-1.14311
28.9155
-0.977864
21.7369
-0.792657
15.4634
-0.606126
10.4572
-0.428906
6.70486
-0.277508
4.01516
-0.148526
2.16351
-0.0800346
1.00159
-0.035403
0.389603
-0.0820609
-0.0944403
0.912292
-0.228587
1.882
-0.377584
2.87168
-0.548764
4.43216
-0.72882
6.55499
-0.924891
9.47042
-1.12308
13.3211
-1.33153
18.2966
-1.43185
23.9419
-1.41372
29.4798
-1.2961
28.7979
-1.10117
21.5419
-0.87728
15.2395
-0.664704
10.2446
-0.473291
6.51345
-0.305385
3.84726
-0.15876
2.01688
-0.0855265
0.928361
-0.0392185
0.343295
-0.121279
-0.1072
1.01949
-0.261554
2.03636
-0.430712
3.04084
-0.613664
4.61512
-0.821991
6.76331
-1.04798
9.69641
-1.28789
13.561
-1.52474
18.5335
-1.62412
24.0413
-1.60076
29.4564
-1.46134
28.6585
-1.23297
21.3136
-0.979392
14.9859
-0.732227
9.99747
-0.511159
6.29238
-0.327287
3.66338
-0.168431
1.85803
-0.0970894
0.857019
-0.0452381
0.291444
-0.166518
-0.133055
1.15255
-0.307627
2.21093
-0.498964
3.23217
-0.719977
4.83613
-0.966141
7.00948
-1.23485
9.96512
-1.50967
13.8359
-1.76495
18.7888
-1.85687
24.1332
-1.82131
29.4209
-1.64642
28.4836
-1.37295
21.0401
-1.07732
14.6903
-0.795073
9.71523
-0.547304
6.04461
-0.343013
3.45909
-0.184745
1.69976
-0.113611
0.785885
-0.0535847
0.231417
-0.220102
-0.145422
1.29797
-0.338515
2.40402
-0.569314
3.46297
-0.828812
5.09563
-1.13004
7.3107
-1.45595
10.291
-1.77365
14.1536
-2.04229
19.0574
-2.11976
24.2107
-2.06593
29.3671
-1.84798
28.2657
-1.52293
20.715
-1.17526
14.3427
-0.851598
9.39156
-0.571912
5.76493
-0.353832
3.24101
-0.195657
1.54158
-0.127036
0.717264
-0.0638208
0.168202
-0.283923
-0.196166
1.49413
-0.44709
2.65494
-0.715515
3.7314
-1.02318
5.40329
-1.38093
7.66845
-1.75052
10.6606
-2.11348
14.5165
-2.38285
19.3268
-2.43868
24.2665
-2.35462
29.283
-2.06587
27.9769
-1.67316
20.3223
-1.27186
13.9414
-0.904374
9.02408
-0.595996
5.45655
-0.361523
3.00654
-0.223001
1.40306
-0.159632
0.653895
-0.0801953
0.0887655
-0.364118
-0.22976
1.72389
-0.485542
2.91073
-0.848416
4.09427
-1.27227
5.82714
-1.70727
8.10345
-2.12405
11.0774
-2.51809
14.9106
-2.76461
19.5733
-2.78944
24.2913
-2.66762
29.1612
-2.3045
27.6138
-1.82623
19.8441
-1.36287
13.478
-0.960482
8.62169
-0.628665
5.12473
-0.379534
2.75741
-0.262016
1.28554
-0.211923
0.603802
-0.105721
-0.0174364
-0.469839
-0.371635
2.09553
-0.809944
3.34903
-1.24832
4.53265
-1.68018
6.259
-2.13436
8.55763
-2.58512
11.5282
-3.00774
15.3332
-3.21491
19.7804
-3.20876
24.2852
-3.01425
28.9667
-2.54751
27.1471
-1.99791
19.2945
-1.4722
12.9523
-1.00545
8.15493
-0.628652
4.74793
-0.352327
2.48108
-0.227451
1.16066
-0.169882
0.546234
-0.0877314
-0.0995872
-0.557571
-0.283547
2.37908
-0.643102
3.70859
-1.01879
4.90834
-1.46003
6.70024
-1.94153
9.03913
-2.44977
12.0364
-2.95582
15.8392
-3.25636
20.081
-3.41255
24.4414
-3.3552
28.9093
-2.92443
26.7163
-2.31236
18.6824
-1.67527
12.3152
-1.09938
7.57905
-0.632427
4.28098
-0.260077
2.10874
-0.099674
1.00026
-0.0290709
0.47563
-0.0457371
-0.0829209
-0.603308
-0.168554
2.54763
-0.41938
3.95942
-0.717905
5.20686
-1.0434
7.02574
-1.39188
9.38761
-1.75294
12.3975
-2.11228
16.1986
-2.30577
20.2745
-2.39228
24.5279
-2.28021
28.7972
-1.88199
26.3181
-1.36291
18.1633
-0.863471
11.8158
-0.431452
7.14703
-0.130883
3.98041
0.0445035
1.93335
0.105438
0.939327
0.103869
0.4772
0.0431134
-0.0221657
-0.560194
-0.103409
2.65104
-0.244109
4.10011
-0.447803
5.41056
-0.686424
7.26436
-0.94995
9.65113
-1.20866
12.6562
-1.44221
16.4321
-1.56539
20.3977
-1.59489
24.5574
-1.44476
28.6471
-1.09743
25.9707
-0.694883
17.7608
-0.333909
11.4548
-0.0689025
6.88202
0.0922071
3.8193
0.140039
1.88552
0.141297
0.938068
0.118686
0.499811
0.0638794
0.0326415
-0.496315
-0.0859537
2.73699
-0.219735
4.2339
-0.372196
5.56302
-0.522572
7.41473
-0.671308
9.79987
-0.819351
12.8042
-0.951154
16.5639
-1.02043
20.4669
-1.00535
24.5423
-0.830569
28.4723
-0.531172
25.6713
-0.231968
17.4616
0.0271697
11.1956
0.220227
6.68897
0.332161
3.70736
0.331615
1.88606
0.278582
0.991101
0.182338
0.596055
0.0707646
0.144215
-0.42555
-0.0327767
2.76977
-0.0969231
4.29804
-0.18978
5.65587
-0.301623
7.52657
-0.415355
9.9136
-0.523467
12.9123
-0.603225
16.6437
-0.632592
20.4963
-0.57342
24.4831
-0.383634
28.2825
-0.120107
25.4078
0.11127
17.2302
0.294892
11.012
0.36683
6.61703
0.391384
3.68281
0.337244
1.9402
0.239358
1.08899
0.151878
0.683535
0.0726937
0.223399
-0.352857
-0.000170085
2.76994
-0.112389
4.41026
-0.206187
5.74967
-0.237814
7.5582
-0.275142
9.95093
-0.322985
12.9602
-0.35916
16.6799
-0.35109
20.4882
-0.261845
24.3939
-0.0553119
28.076
0.162838
25.1897
0.343358
17.0497
0.448516
10.9069
0.492723
6.57282
0.469924
3.70561
0.38685
2.02328
0.282966
1.19287
0.180954
0.785547
0.0788993
0.325454
-0.273957
0.00986667
2.76007
-0.0366381
4.45677
-0.0674656
5.7805
-0.102874
7.59361
-0.149838
9.99789
-0.180163
12.9905
-0.189412
16.6891
-0.153402
20.4522
-0.0506855
24.2912
0.123625
27.9017
0.33364
24.9796
0.469071
16.9142
0.539549
10.8364
0.538933
6.57344
0.508103
3.73644
0.43119
2.10019
0.306689
1.31737
0.186087
0.906149
0.0602554
0.451286
-0.213702
0.00632834
2.75374
-0.0437824
4.50688
-0.0897956
5.82651
-0.090332
7.59415
-0.0840799
9.99164
-0.0821779
12.9886
-0.0648907
16.6718
-0.0176782
20.405
0.0742421
24.1993
0.232657
27.7433
0.419431
24.7929
0.546373
16.7873
0.607997
10.7748
0.614521
6.56691
0.534229
3.81673
0.399154
2.23527
0.267138
1.44939
0.146978
1.02631
0.0491036
0.54916
-0.164598
0.0445605
2.70918
0.0305186
4.52092
0.0219922
5.83504
-0.017195
7.63333
-0.0299932
10.0044
-0.0160558
12.9747
0.0154683
16.6403
0.0546105
20.3659
0.145009
24.1089
0.298174
27.5901
0.469768
24.6213
0.587358
16.6697
0.626888
10.7352
0.596114
6.59769
0.535629
3.87722
0.423342
2.34755
0.276003
1.59673
0.141239
1.16107
0.0380999
0.652299
-0.126499
0.0282891
2.6809
0.00261624
4.54659
-0.000302894
5.83796
-0.0119716
7.645
-0.00653917
9.99901
0.0190905
12.949
0.0470752
16.6123
0.0941329
20.3188
0.183805
24.0192
0.331426
27.4425
0.490479
24.4622
0.595346
16.5648
0.631108
10.6995
0.614066
6.61473
0.50875
3.98253
0.371802
2.4845
0.242124
1.72641
0.121221
1.28198
0.0224516
0.751068
-0.104047
0.0488843
2.63201
0.074242
4.52123
0.0564664
5.85573
0.0306919
7.67078
0.0165643
10.0131
0.0327351
12.9329
0.063319
16.5817
0.112861
20.2693
0.201208
23.9308
0.340687
27.303
0.487089
24.3158
0.577597
16.4743
0.599546
10.6775
0.56743
6.64685
0.496534
4.05343
0.367149
2.61388
0.210454
1.8831
0.0824428
1.40999
0.00653429
0.826977
-0.0975127
0.0411992
2.59081
0.0287606
4.53367
0.0299065
5.85459
0.0231136
7.67757
0.0240292
10.0122
0.0418449
12.9151
0.073715
16.5499
0.122504
20.2205
0.206229
23.8471
0.333198
27.176
0.463765
24.1853
0.536284
16.4018
0.554784
10.659
0.532299
6.66933
0.427706
4.15802
0.30067
2.74092
0.18919
1.99458
0.0738884
1.52529
0.00321186
0.897653
-0.0943008
0.0453371
2.54547
0.0689639
4.51005
0.0595024
5.86405
0.0509652
7.68611
0.0356234
10.0276
0.045584
12.9051
0.0771771
16.5183
0.125093
20.1726
0.202426
23.7698
0.314198
27.0643
0.425258
24.0742
0.481806
16.3453
0.493058
10.6478
0.466888
6.6955
0.399778
4.22513
0.268628
2.87207
0.120636
2.14257
0.0214142
1.62451
-0.00888934
0.927957
-0.10319
0.0349287
2.51055
0.0268365
4.51814
0.028446
5.86244
0.0328754
7.68168
0.039937
10.0205
0.0503007
12.8947
0.0801537
16.4884
0.124838
20.1279
0.193861
23.7008
0.289187
26.9689
0.376614
23.9868
0.417596
16.3043
0.422021
10.6433
0.393849
6.72367
0.304006
4.31497
0.195615
2.98046
0.101864
2.23633
0.00810178
1.71827
-0.0183781
0.954437
-0.121568
0.0353239
2.47522
0.0482264
4.50523
0.0418079
5.86886
0.0417472
7.68174
0.0418683
10.0204
0.0523914
12.8842
0.0799345
16.4609
0.121089
20.0867
0.181871
23.64
0.260986
26.8898
0.324774
23.923
0.350955
16.2781
0.351561
10.6427
0.32741
6.74783
0.261938
4.38045
0.147424
3.09498
0.0168639
2.36689
-0.0582978
1.79343
-0.0331614
0.9293
-0.15473
0.0236559
2.45157
0.0124601
4.51643
0.0152638
5.86606
0.0220452
7.67496
0.0361268
10.0063
0.0531341
12.8672
0.0794065
16.4346
0.116586
20.0495
0.169331
23.5872
0.232635
26.8265
0.275808
23.8798
0.286393
16.2675
0.278199
10.6509
0.239493
6.78653
0.151636
4.4683
0.0581367
3.18848
-0.0165949
2.44162
-0.0790457
1.85589
-0.0449724
0.895227
-0.199702
0.0212141
2.43035
0.0250981
4.51255
0.0227597
5.86839
0.0242065
7.67351
0.0320969
9.99841
0.0502678
12.849
0.0762069
16.4087
0.111062
20.0147
0.156872
23.5414
0.204885
26.7785
0.230592
23.8541
0.225361
16.2727
0.209676
10.6666
0.168721
6.82749
0.0969054
4.54012
0.00752878
3.27785
-0.080368
2.52951
-0.116926
1.89244
-0.0632296
0.841531
-0.262932
0.0103922
2.41996
-0.000558524
4.5235
0.00241056
5.86542
0.00764113
7.66828
0.0240975
9.98195
0.0449996
12.8281
0.0716714
16.382
0.106073
19.9803
0.14536
23.5021
0.179094
26.7448
0.191098
23.8421
0.171071
16.2928
0.14232
10.6954
0.0796875
6.89012
-0.0141859
4.63399
-0.0880852
3.35175
-0.121707
2.56314
-0.119399
1.89013
-0.0566427
0.778775
-0.319574
0.00796068
2.412
0.00581804
4.52564
0.00867355
5.86257
0.00743521
7.66952
0.019941
9.96945
0.0388926
12.8092
0.0656289
16.3553
0.100089
19.9458
0.133766
23.4685
0.155167
26.7234
0.156413
23.8409
0.122283
16.3269
0.0782009
10.7395
0.0072002
6.96112
-0.0800011
4.72119
-0.155977
3.42773
-0.184426
2.59158
-0.111517
1.81723
0.0190672
0.64819
-0.300507
0.000374711
2.41162
-0.0117002
4.53772
-0.00955559
5.86042
-0.0027673
7.66273
0.0137863
9.95289
0.0325278
12.7904
0.0593551
16.3284
0.0921691
19.913
0.120675
23.44
0.135074
26.709
0.127698
23.8482
0.0799539
16.3746
0.0156017
10.8038
-0.0686641
7.04539
-0.188086
4.84061
-0.272173
3.51181
-0.25553
2.57494
-0.0676443
1.62934
0.183215
0.397331
-0.117292
-0.00255646
2.41418
-0.00486372
4.54002
-0.00241652
5.85798
-0.00212886
7.66244
0.0105696
9.94019
0.0267135
12.7743
0.0530664
16.3021
0.084529
19.8815
0.109621
23.4149
0.122374
26.6962
0.107303
23.8633
0.0438567
16.4381
-0.036556
10.8842
-0.148478
7.15731
-0.272662
4.9648
-0.374724
3.61388
-0.402598
2.60281
-0.271322
1.49806
-0.430102
0.556112
0.628984
-1.17638
-0.00791315
2.42209
-0.0146976
4.54681
-0.0168416
5.86012
-0.00806904
7.65367
0.00644044
9.92568
0.0217161
12.759
0.0467698
16.277
0.0755086
19.8528
0.0973539
23.393
0.107377
26.6862
0.0840768
23.8866
0.00192508
16.5202
-0.0924359
10.9786
-0.242809
7.30768
-0.448884
5.17087
-0.665897
3.83089
-0.748353
2.68527
-0.7478
1.49751
-1.27625
1.08457
1.2081
-1.85537
-0.00998499
2.43208
-0.00790341
4.54473
-0.0101419
5.86236
-0.00501535
7.64854
0.00595247
9.91472
0.0187142
12.7463
0.0413957
16.2543
0.0675026
19.8267
0.0869439
23.3736
0.0938297
26.6793
0.063542
23.9169
-0.0269926
16.6108
-0.154222
11.1058
-0.343329
7.49679
-0.571824
5.39937
-0.784029
4.04309
-0.835747
2.73699
-1.15115
1.81292
-1.67745
1.61087
1.50101
-1.97036
-0.0130885
2.44517
-0.014184
4.54582
-0.0200715
5.86825
-0.00799435
7.63646
0.00440569
9.90232
0.0165711
12.7341
0.037192
16.2337
0.0608322
19.8031
0.0785019
23.3559
0.0823439
26.6755
0.0455614
23.9537
-0.0574359
16.7138
-0.209778
11.2582
-0.438971
7.72598
-0.745179
5.70558
-1.00882
4.30673
-1.17686
2.90503
-1.54102
2.17708
-1.87881
1.94866
1.66777
-2.04557
-0.0129298
2.4581
-0.00895709
4.54185
-0.0116687
5.87096
-0.00477585
7.62957
0.00549874
9.89204
0.0162772
12.7233
0.0346873
16.2153
0.0559831
19.7818
0.0722003
23.3397
0.0722323
26.6754
0.0275601
23.9983
-0.0873571
16.8287
-0.261753
11.4325
-0.540708
8.00494
-0.845067
6.00994
-1.01372
4.47538
-1.2222
3.11351
-1.61228
2.56717
-1.92255
2.25894
1.85592
-2.11071
-0.0119493
2.47005
-0.0149896
4.54489
-0.0170321
5.873
-0.00668509
7.61922
0.00566654
9.87969
0.017009
12.712
0.0351047
16.1972
0.0544587
19.7624
0.0694574
23.3247
0.0649188
26.68
0.0122801
24.051
-0.113471
16.9544
-0.306704
11.6258
-0.603784
8.30202
-0.918473
6.32463
-1.18986
4.74677
-1.56398
3.48763
-1.90264
2.90583
-2.12843
2.48473
1.97748
-2.25
-0.00827501
2.47832
-0.0101185
4.54673
-0.00858567
5.87147
-0.00341174
7.61405
0.00692622
9.86935
0.0180868
12.7008
0.0362522
16.179
0.0543334
19.7443
0.0674539
23.3116
0.0576219
26.6898
-0.00350556
24.1121
-0.136377
17.0873
-0.346344
11.8357
-0.667522
8.62319
-0.99261
6.64971
-1.22129
4.97544
-1.52569
3.79203
-1.865
3.24514
-2.08557
2.7053
2.16259
-2.27068
-0.0063085
2.48463
-0.0147258
4.55515
-0.0149668
5.87171
-0.00574341
7.60483
0.00644767
9.85716
0.0179486
12.6893
0.0363455
16.1606
0.0533776
19.7273
0.0643287
23.3006
0.0501406
26.704
-0.0177296
24.18
-0.154403
17.224
-0.371547
12.0529
-0.690771
8.94242
-1.01619
6.97514
-1.30402
5.26327
-1.67896
4.16697
-2.13928
3.70546
-2.47649
3.04251
2.43502
-2.74892
-0.00141764
2.48605
-0.00478197
4.55851
-0.00382
5.87075
-0.00159968
7.60261
0.0074306
9.84813
0.0177582
12.679
0.0358882
16.1425
0.0522365
19.7109
0.0605039
23.2923
0.0428685
26.7216
-0.029592
24.2524
-0.16738
17.3618
-0.385186
12.2707
-0.699643
9.25687
-1.04589
7.32138
-1.40727
5.62465
-1.75395
4.51366
-2.15984
4.11134
-2.59721
3.47988
2.62317
-2.78536
-0.00128018
2.48733
-0.00846731
4.5657
-0.0113438
5.87362
-0.0035557
7.59482
0.00590433
9.83867
0.0167418
12.6681
0.035072
16.1242
0.0507768
19.6952
0.0569815
23.2861
0.0375032
26.7411
-0.0371713
24.3271
-0.175943
17.5005
-0.398374
12.4931
-0.701926
9.56042
-1.00655
7.62601
-1.36912
5.98721
-1.88971
5.03425
-2.2306
4.45223
-2.65608
3.90536
3.25946
-3.29237
0.0050924
2.48224
0.00249641
4.5683
0.00256943
5.87355
0.000594713
7.59679
0.00705992
9.83221
0.0163397
12.6589
0.033682
16.1068
0.0477192
19.6812
0.0523072
23.2816
0.032798
26.7606
-0.0391707
24.3991
-0.17024
17.6316
-0.385329
12.7082
-0.658249
9.83334
-0.912072
7.87983
-1.22076
6.2959
-1.59441
5.4079
-1.76318
4.621
-1.28001
3.42219
1.97945
0.00223534
2.48
-0.00305132
4.57358
-0.00813917
5.87864
-0.00161175
7.59027
0.00780529
9.82279
0.01793
12.6487
0.036808
16.088
0.0512008
19.6668
0.0555916
23.2772
0.0364706
26.7797
-0.0352806
24.4708
-0.16534
17.7617
-0.38409
12.927
-0.642276
10.0915
-0.831002
8.06856
-0.990489
6.45539
-0.99891
5.41632
-0.894429
4.51652
-0.620044
3.14781
1.35941
0.00763259
2.47237
0.00608254
4.57513
0.00801826
5.8767
0.0054747
7.59281
0.0110374
9.81723
0.0203682
12.6394
0.0407148
16.0676
0.0561707
19.6514
0.0612663
23.2721
0.0440088
26.797
-0.0234251
24.5383
-0.145465
17.8837
-0.357216
13.1387
-0.579693
10.314
-0.714606
8.20347
-0.806551
6.54733
-0.880268
5.49004
-0.877926
4.51418
-0.745439
3.01532
0.613972
0.00288309
2.46949
-0.00141209
4.57943
-0.007255
5.88255
0.0015981
7.58396
0.0122422
9.80658
0.0230186
12.6286
0.0453125
16.0453
0.0631111
19.6336
0.0708817
23.2643
0.0570495
26.8108
0.000305292
24.595
-0.108259
17.9923
-0.302398
13.3329
-0.481327
10.4929
-0.612145
8.33429
-0.729742
6.66493
-0.822924
5.58322
-0.785613
4.47687
-0.380853
2.61056
0.233119
0.00945298
2.46003
0.00725085
4.58163
0.0114291
5.87837
0.00931074
7.58607
0.0154979
9.80039
0.0261602
12.618
0.0515006
16.02
0.0729623
19.6121
0.0842358
23.253
0.0767769
26.8183
0.0310813
24.6407
-0.0605588
18.0839
-0.225161
13.4975
-0.405142
10.6729
-0.55502
8.48416
-0.671374
6.78128
-0.698954
5.6108
-0.538591
4.31651
-0.157658
2.22963
0.0754616
0.00187397
2.45816
-0.000575977
4.58408
-0.00735508
5.88515
0.0045581
7.57416
0.0183889
9.78656
0.0311096
12.6052
0.05987
15.9912
0.0864557
19.5855
0.103848
23.2356
0.105695
26.8164
0.071895
24.6745
-0.0102286
18.166
-0.15963
13.6469
-0.336959
10.8502
-0.461349
8.60855
-0.533075
6.85301
-0.514278
5.59201
-0.382573
4.1848
-0.143877
1.99093
-0.0684156
0.0166586
2.4415
0.0120726
4.58867
0.0169827
5.88024
0.0172898
7.57385
0.0250534
9.7788
0.0392426
12.5911
0.0714723
15.959
0.10433
19.5527
0.129286
23.2107
0.143186
26.8025
0.129133
24.6886
0.058876
18.2363
-0.08922
13.795
-0.247756
11.0088
-0.341524
8.70232
-0.380019
6.8915
-0.367305
5.57929
-0.269919
4.08742
-0.0654626
1.78648
-0.133878
0.00102259
2.44048
0.00597118
4.58372
0.00255107
5.88366
0.0160354
7.56037
0.034296
9.76054
0.0520418
12.5733
0.0890822
15.922
0.130256
19.5115
0.164773
23.1762
0.191515
26.7758
0.200766
24.6793
0.141303
18.2958
-0.00683201
13.9431
-0.132386
11.1343
-0.203913
8.77385
-0.229797
6.91739
-0.215191
5.56469
-0.133232
4.00546
0.021828
1.63142
-0.11205
0.0332104
2.40727
0.0254181
4.59151
0.0318944
5.87718
0.0364976
7.55577
0.0498637
9.74717
0.0703623
12.5528
0.11301
15.8793
0.162617
19.4619
0.208586
23.1302
0.250137
26.7343
0.28076
24.6487
0.22754
18.349
0.0899904
14.0806
-0.022092
11.2464
-0.062626
8.81438
-0.0842065
6.93897
-0.080679
5.56116
-0.0326394
3.95742
0.0574366
1.54134
-0.0546135
0.00435462
2.40291
0.0223049
4.57356
0.027014
5.87247
0.0452094
7.53757
0.0717298
9.72065
0.0990586
12.5255
0.148768
15.8296
0.2087
19.4019
0.267035
23.0719
0.324087
26.6772
0.371044
24.6017
0.323932
18.3961
0.201961
14.2026
0.101709
11.3467
0.0525412
8.86355
0.0459901
6.94552
0.0393388
5.56781
0.0609173
3.93584
0.0733874
1.52887
0.0187739
0.0560046
2.34691
0.0521839
4.57738
0.0664979
5.85816
0.0799349
7.52413
0.10621
9.69438
0.137506
12.4942
0.195573
15.7715
0.265742
19.3318
0.337277
23.0003
0.410669
26.6038
0.472526
24.5399
0.432673
18.4359
0.320785
14.3145
0.229164
11.4383
0.175399
8.91732
0.140759
6.98016
0.141733
5.56684
0.145932
3.93164
0.0841673
1.59063
0.102941
0.0250828
2.32182
0.0601798
4.54228
0.0802443
5.83809
0.106865
7.49751
0.151101
9.65014
0.193277
12.452
0.262328
15.7025
0.344072
19.25
0.428824
22.9156
0.516685
26.516
0.588738
24.4678
0.549127
18.4756
0.439335
14.4243
0.352616
11.525
0.294115
8.97582
0.263262
7.01101
0.264888
5.56521
0.249433
3.94709
0.101246
1.73882
0.204187
0.0862552
2.23557
0.108188
4.52035
0.140039
5.80624
0.175371
7.46218
0.217558
9.60795
0.268729
12.4008
0.348627
15.6226
0.441639
19.157
0.539525
22.8177
0.639333
26.4161
0.719439
24.3877
0.676225
18.5188
0.567519
14.533
0.484578
11.608
0.43375
9.02664
0.410312
7.03445
0.3997
5.57582
0.340072
4.00672
0.137285
1.94161
0.341472
0.0621455
2.17342
0.136316
4.44618
0.180994
5.76156
0.240351
7.40283
0.300979
9.54733
0.371351
12.3305
0.464537
15.5294
0.570897
19.0507
0.681213
22.7074
0.791114
26.3062
0.868848
24.31
0.812263
18.5754
0.703886
14.6414
0.621162
11.6907
0.561098
9.08671
0.514652
7.08089
0.480761
5.60971
0.404468
4.08301
0.190327
2.15575
0.531799
0.167451
2.00597
0.239731
4.3739
0.308172
5.69312
0.370672
7.34033
0.434134
9.48386
0.513481
12.2511
0.618144
15.4247
0.73581
18.933
0.854993
22.5882
0.970972
26.1903
1.03979
24.2412
0.967968
18.6472
0.847442
14.7619
0.741746
11.7964
0.650797
9.17766
0.581242
7.15045
0.530677
5.66028
0.444326
4.16937
0.223665
2.37641
0.755465
0.207556
1.79842
0.354455
4.227
0.429941
5.61764
0.507492
7.26278
0.596794
9.39456
0.695606
12.1523
0.817763
15.3026
0.948302
18.8024
1.07727
22.4592
1.19841
26.0691
1.24121
24.1984
1.12906
18.7593
0.97463
14.9163
0.835978
11.935
0.71685
9.29678
0.62679
7.24051
0.556332
5.73074
0.4527
4.273
0.226936
2.60217
0.9824
0.374192
1.42422
0.579441
4.02175
0.689276
5.5078
0.765996
7.18606
0.850294
9.31026
0.953905
12.0487
1.08295
15.1735
1.22459
18.6608
1.36136
22.3224
1.47529
25.9552
1.47544
24.1982
1.3209
18.9139
1.13423
15.103
0.967498
12.1018
0.821392
9.44289
0.703462
7.35844
0.601608
5.83259
0.468611
4.40599
0.230654
2.84013
1.21305
0.719049
0.705175
0.948266
3.79254
0.987714
5.46835
1.05864
7.11513
1.16356
9.20535
1.28245
11.9298
1.42333
15.0326
1.57868
18.5055
1.72629
22.1748
1.83018
25.8513
1.7842
24.2442
1.59555
19.1025
1.38424
15.3143
1.17827
12.3077
0.967203
9.65396
0.77758
7.54806
0.61561
5.99456
0.444973
4.57663
0.211558
3.07355
1.42461
0.677374
0.0278008
1.36546
3.10445
1.5457
5.28811
1.5807
7.08013
1.62499
9.16105
1.72601
11.8288
1.87016
14.8885
2.03862
18.337
2.19759
22.0159
2.2887
25.7602
2.21619
24.3167
2.0078
19.3109
1.77161
15.5505
1.51519
12.5641
1.22566
9.94348
0.958905
7.81482
0.729107
6.22436
0.5014
4.80434
0.228648
3.3463
1.65326
0.525421
-0.49762
1.6727
1.95717
2.05473
4.90609
2.11188
7.02298
2.16797
9.10496
2.28474
11.712
2.44298
14.7303
2.63548
18.1445
2.82483
21.8265
2.93864
25.6464
2.86853
24.3868
2.63888
19.5405
2.34684
15.8426
2.03295
12.878
1.69184
10.2846
1.33808
8.16857
0.988134
6.57431
0.646944
5.14553
0.291148
3.70209
1.94441
0.388674
-0.886293
1.78878
0.557065
2.25236
4.4425
2.26997
7.00537
2.2447
9.13023
2.27025
11.6865
2.30654
14.694
2.35703
18.094
2.40021
21.7833
2.37058
25.676
2.20131
24.5561
1.95731
19.7845
1.69339
16.1065
1.41111
13.1603
1.13683
10.5589
0.900588
8.40482
0.685149
6.78974
0.4634
5.36728
0.215023
3.95047
2.15943
0.302813
-1.18911
1.00629
-0.146418
1.4675
3.9813
1.57987
6.89301
1.52866
9.18144
1.51726
11.6979
1.5728
14.6384
1.66577
18.001
1.74781
21.7013
1.77819
25.6457
1.66582
24.6684
1.48059
19.9698
1.28357
16.3035
1.08321
13.3607
0.863152
10.7789
0.657528
8.61044
0.479589
6.96768
0.309486
5.53738
0.137827
4.12213
2.29726
0.290834
-1.47994
0.0154729
0.128944
0.254988
3.74178
0.434343
6.71366
0.542187
9.07359
0.669176
11.5709
0.818832
14.4888
0.994192
17.8257
1.14407
21.5514
1.25086
25.5389
1.20456
24.7147
1.087
20.0873
0.946328
16.4442
0.796306
13.5107
0.631739
10.9435
0.477183
8.765
0.34416
7.10071
0.21907
5.66247
0.0902624
4.25094
2.38752
-0.174266
-1.30567
-0.758244
0.712922
-0.952143
3.93568
-0.752825
6.51434
-0.451942
8.77271
-0.155902
11.2748
0.109682
14.2232
0.362082
17.5733
0.589428
21.3241
0.773878
25.3544
0.807318
24.6813
0.75662
20.138
0.670543
16.5303
0.570299
13.6109
0.454618
11.0592
0.341285
8.87833
0.24068
7.20131
0.143708
5.75944
0.0477955
4.34685
2.43532
-0.445327
-0.860347
-0.990427
1.25802
-1.23808
4.18333
-1.20039
6.47665
-1.03675
8.60907
-0.774064
11.0122
-0.459655
13.9088
-0.149393
17.263
0.125084
21.0496
0.376709
25.1028
0.481857
24.5761
0.490089
20.1298
0.451243
16.5691
0.390966
13.6712
0.310301
11.1398
0.228264
8.96037
0.153891
7.27569
0.0796275
5.83371
0.0108416
4.41564
2.44616
-0.478711
-0.381636
-0.965588
1.7449
-1.13755
4.35529
-1.20516
6.54426
-1.18539
8.5893
-1.04908
10.8759
-0.807348
13.667
-0.517924
16.9736
-0.205735
20.7374
0.0801116
24.8169
0.230007
24.4263
0.280061
20.0797
0.275597
16.5736
0.243792
13.703
0.191828
11.1918
0.134593
9.0176
0.0789102
7.33137
0.0240383
5.88858
-0.0208031
4.46048
2.42536
-0.443688
0.0620521
-0.814469
2.11568
-0.990556
4.53138
-1.05378
6.60749
-1.08238
8.6179
-1.06164
10.8551
-0.933849
13.5392
-0.709369
16.7491
-0.418169
20.4462
-0.121429
24.5202
0.0499032
24.2549
0.118814
20.0108
0.139135
16.5533
0.126392
13.7158
0.0969483
11.2213
0.056912
9.05764
0.0149621
7.37332
-0.0247877
5.92833
-0.0509867
4.48668
2.37437
-0.336855
0.398907
-0.65206
2.43089
-0.830328
4.70965
-0.902192
6.67935
-0.933833
8.64954
-0.933728
10.855
-0.890218
13.4957
-0.747885
16.6068
-0.509363
20.2077
-0.247145
24.258
-0.0774331
24.0852
-0.0022447
19.9356
0.0317227
16.5193
0.0374304
13.7101
0.0196468
11.239
-0.0125105
9.0898
-0.0436141
7.40442
-0.0715762
5.95629
-0.0740687