/*--------------------------------*- C++ -*----------------------------------*\
| =========                 |                                                 |
| \\      /  F ield         | OpenFOAM: The Open Source CFD Toolbox           |
|  \\    /   O peration     | Version:  2412                                  |
|   \\  /    A nd           | Website:  www.openfoam.com                      |
|    \\/     M anipulation  |                                                 |
\*---------------------------------------------------------------------------*/
FoamFile
{
    version     2.0;
    format      ascii;
    arch        "LSB;label=32;scalar=64";
    class       volVectorField;
    location    "8.75";
    object      U;
}
// * * * * * * * * * * * * * * * * * * * * * * * * * * * * * * * * * * * * * //

dimensions      [0 1 -1 0 0 0 0];

internalField   nonuniform List<vector> 
2200
(
(0.381027 0.00034044 0)
(1.19493 0.00143521 0)
(2.12308 0.00237443 0)
(3.16907 0.00342836 0)
(4.32453 0.00451133 0)
(5.57044 0.00581241 0)
(6.86207 0.00709315 0)
(8.1185 0.00803749 0)
(9.20512 0.00822117 0)
(9.90052 0.00914531 0)
(9.90101 0.00911222 0)
(9.2063 0.00924625 0)
(8.12119 0.00853754 0)
(6.86551 0.00732073 0)
(5.57329 0.00615297 0)
(4.32569 0.00455745 0)
(3.16783 0.00362677 0)
(2.12199 0.00272653 0)
(1.19283 0.00179739 0)
(0.377463 0.00106128 0)
(0.385645 0.000893794 0)
(1.19947 0.00302145 0)
(2.12772 0.00597107 0)
(3.1729 0.00943207 0)
(4.33137 0.0130926 0)
(5.5781 0.0163903 0)
(6.87012 0.0199007 0)
(8.12678 0.0234452 0)
(9.2111 0.0279692 0)
(9.90157 0.0285562 0)
(9.89998 0.0280411 0)
(9.20535 0.0250777 0)
(8.11841 0.0224172 0)
(6.85824 0.0194168 0)
(5.56538 0.016773 0)
(4.31881 0.0135577 0)
(3.16314 0.0102777 0)
(2.11559 0.00731784 0)
(1.18362 0.00432877 0)
(0.370724 0.0011578 0)
(0.395566 0.0017557 0)
(1.21042 0.00491094 0)
(2.13862 0.00980794 0)
(3.18392 0.0154232 0)
(4.33762 0.0218148 0)
(5.58218 0.0282251 0)
(6.87176 0.0335112 0)
(8.12545 0.0391588 0)
(9.21196 0.0430695 0)
(9.89993 0.0459416 0)
(9.89929 0.044624 0)
(9.20073 0.0432025 0)
(8.11149 0.0390059 0)
(6.85477 0.0338139 0)
(5.56022 0.0267492 0)
(4.31153 0.0215554 0)
(3.15015 0.0158736 0)
(2.10169 0.0101428 0)
(1.17069 0.00519225 0)
(0.361757 0.000673858 0)
(0.408505 0.00260146 0)
(1.2251 0.00715209 0)
(2.154 0.0145875 0)
(3.19846 0.0215886 0)
(4.35548 0.0300886 0)
(5.59892 0.0383771 0)
(6.88715 0.0463178 0)
(8.13962 0.0537209 0)
(9.22277 0.0623102 0)
(9.90124 0.0651677 0)
(9.89571 0.0641287 0)
(9.19488 0.0585415 0)
(8.10376 0.0518783 0)
(6.83904 0.0437972 0)
(5.54335 0.0374013 0)
(4.29383 0.0280805 0)
(3.13686 0.0194615 0)
(2.08772 0.0124203 0)
(1.15559 0.00590174 0)
(0.351266 0.000535111 0)
(0.429618 0.00345108 0)
(1.24995 0.00941296 0)
(2.17607 0.0185776 0)
(3.2183 0.0284992 0)
(4.36956 0.0384123 0)
(5.61033 0.0487376 0)
(6.8951 0.0593673 0)
(8.14345 0.0691812 0)
(9.22762 0.0774497 0)
(9.89896 0.081904 0)
(9.89393 0.0797874 0)
(9.18814 0.0760897 0)
(8.09178 0.0678215 0)
(6.83045 0.0582366 0)
(5.53215 0.0447636 0)
(4.28019 0.0339117 0)
(3.11666 0.0242913 0)
(2.06655 0.0146107 0)
(1.13472 0.00681929 0)
(0.339574 0.000388181 0)
(0.455489 0.00430026 0)
(1.28032 0.0117585 0)
(2.20845 0.0248038 0)
(3.24981 0.0361684 0)
(4.40189 0.0489507 0)
(5.6387 0.0608101 0)
(6.91912 0.0726911 0)
(8.16343 0.0844638 0)
(9.24349 0.0968207 0)
(9.90088 0.102273 0)
(9.88926 0.0995913 0)
(9.17794 0.091489 0)
(8.07947 0.0801062 0)
(6.80823 0.0658803 0)
(5.50735 0.0546519 0)
(4.25537 0.0411486 0)
(3.09351 0.0281577 0)
(2.0402 0.0169663 0)
(1.11091 0.00803728 0)
(0.326839 0.00110267 0)
(0.485866 0.00384439 0)
(1.31583 0.0131977 0)
(2.23997 0.0257997 0)
(3.27946 0.0402304 0)
(4.42246 0.0554106 0)
(5.65658 0.0712774 0)
(6.93312 0.0861273 0)
(8.17258 0.0996751 0)
(9.25275 0.11334 0)
(9.89916 0.118669 0)
(9.88613 0.115707 0)
(9.16929 0.108088 0)
(8.06318 0.0956831 0)
(6.79491 0.0816193 0)
(5.49139 0.0618524 0)
(4.23286 0.0462081 0)
(3.06589 0.0327248 0)
(2.01331 0.0203629 0)
(1.08146 0.00974009 0)
(0.308595 0.00256986 0)
(0.513344 0.00240911 0)
(1.34505 0.0136258 0)
(2.27206 0.0274204 0)
(3.31196 0.0440118 0)
(4.46543 0.0637136 0)
(5.69642 0.0830444 0)
(6.96751 0.100777 0)
(8.19982 0.117752 0)
(9.27336 0.133133 0)
(9.90147 0.140841 0)
(9.88132 0.135673 0)
(9.15534 0.125328 0)
(8.04557 0.108239 0)
(6.76531 0.0878267 0)
(5.45788 0.0722072 0)
(4.20124 0.0536209 0)
(3.03584 0.0383917 0)
(1.97896 0.0252761 0)
(1.0456 0.0108419 0)
(0.283576 0.00423637 0)
(0.546654 0.00196409 0)
(1.40283 0.0157435 0)
(2.32973 0.0295748 0)
(3.36216 0.0500528 0)
(4.49419 0.0726515 0)
(5.72051 0.0930189 0)
(6.9873 0.113504 0)
(8.21546 0.132657 0)
(9.28881 0.15233 0)
(9.90132 0.158357 0)
(9.87593 0.153937 0)
(9.14368 0.140984 0)
(8.02532 0.124446 0)
(6.747 0.105945 0)
(5.43514 0.079687 0)
(4.16825 0.0605083 0)
(2.99395 0.0437029 0)
(1.93807 0.0283155 0)
(1.00737 0.0114499 0)
(0.253976 0.00543005 0)
(0.574296 0.00311315 0)
(1.44123 0.02007 0)
(2.37042 0.0345198 0)
(3.40581 0.0570469 0)
(4.55068 0.0801811 0)
(5.77143 0.107212 0)
(7.03099 0.131027 0)
(8.24983 0.153348 0)
(9.31292 0.173973 0)
(9.90405 0.18355 0)
(9.8714 0.17503 0)
(9.12545 0.161764 0)
(7.99874 0.138943 0)
(6.7051 0.112653 0)
(5.3884 0.092164 0)
(4.12658 0.0671429 0)
(2.95985 0.0455885 0)
(1.90415 0.0276032 0)
(0.975009 0.0101856 0)
(0.223219 0.00568312 0)
(0.630431 0.00438546 0)
(1.52336 0.0262975 0)
(2.44362 0.0456408 0)
(3.46196 0.0671092 0)
(4.58443 0.0930849 0)
(5.8012 0.117003 0)
(7.05602 0.144312 0)
(8.27065 0.170866 0)
(9.33216 0.196374 0)
(9.90388 0.204091 0)
(9.86224 0.197767 0)
(9.10694 0.179599 0)
(7.97043 0.157571 0)
(6.6783 0.132963 0)
(5.35594 0.0998466 0)
(4.0822 0.0737666 0)
(2.90499 0.047746 0)
(1.85276 0.0247493 0)
(0.943073 0.00694934 0)
(0.194893 0.00526357 0)
(0.67397 0.00662611 0)
(1.57855 0.0307244 0)
(2.48857 0.0537831 0)
(3.51649 0.0786111 0)
(4.64851 0.101401 0)
(5.85679 0.134161 0)
(7.10266 0.165167 0)
(8.30924 0.194388 0)
(9.35683 0.221161 0)
(9.90527 0.232517 0)
(9.85541 0.222084 0)
(9.08234 0.205638 0)
(7.93258 0.177072 0)
(6.61985 0.142291 0)
(5.28964 0.113302 0)
(4.02 0.0808775 0)
(2.84844 0.0491992 0)
(1.79682 0.0211326 0)
(0.91897 0.00520818 0)
(0.173698 0.00457914 0)
(0.763015 0.00776371 0)
(1.69605 0.0361934 0)
(2.56913 0.067239 0)
(3.57144 0.0894357 0)
(4.68837 0.117026 0)
(5.89442 0.14651 0)
(7.13463 0.181567 0)
(8.33294 0.215228 0)
(9.37706 0.24647 0)
(9.90181 0.257431 0)
(9.83844 0.251089 0)
(9.05109 0.229789 0)
(7.88902 0.199643 0)
(6.57871 0.166663 0)
(5.24319 0.1259 0)
(3.95786 0.0898182 0)
(2.77498 0.0531099 0)
(1.7256 0.0225418 0)
(0.894145 0.00624158 0)
(0.152438 0.0045033 0)
(0.821249 0.00903459 0)
(1.7682 0.0357406 0)
(2.6382 0.0673195 0)
(3.65461 0.101692 0)
(4.77075 0.131738 0)
(5.95992 0.169763 0)
(7.18581 0.205453 0)
(8.37928 0.241775 0)
(9.40288 0.275688 0)
(9.89945 0.291307 0)
(9.82492 0.281773 0)
(9.0184 0.261616 0)
(7.8421 0.226023 0)
(6.507 0.180896 0)
(5.15852 0.140622 0)
(3.87799 0.0987073 0)
(2.70157 0.0604899 0)
(1.65798 0.0281205 0)
(0.867136 0.0109791 0)
(0.128384 0.00463158 0)
(0.92785 0.0103694 0)
(1.90749 0.0416331 0)
(2.72137 0.0816888 0)
(3.72098 0.108002 0)
(4.83005 0.14922 0)
(6.02262 0.189859 0)
(7.24181 0.233541 0)
(8.41837 0.27192 0)
(9.427 0.309605 0)
(9.89262 0.324359 0)
(9.80033 0.317309 0)
(8.97518 0.291669 0)
(7.7842 0.251549 0)
(6.45441 0.206446 0)
(5.10894 0.152923 0)
(3.81644 0.109357 0)
(2.62312 0.0721447 0)
(1.57502 0.035716 0)
(0.823248 0.0165286 0)
(0.0916663 0.00502862 0)
(0.999971 0.00971821 0)
(2.0072 0.0398646 0)
(2.8249 0.0768024 0)
(3.83113 0.125824 0)
(4.93205 0.16826 0)
(6.10204 0.217644 0)
(7.30515 0.259666 0)
(8.47715 0.307914 0)
(9.45903 0.350777 0)
(9.89132 0.368677 0)
(9.7831 0.355674 0)
(8.93804 0.32695 0)
(7.7342 0.280348 0)
(6.37817 0.222017 0)
(5.01106 0.166836 0)
(3.72113 0.118487 0)
(2.53831 0.0817374 0)
(1.49529 0.0389692 0)
(0.777181 0.0206639 0)
(0.0521912 0.00550532 0)
(1.10818 0.0152214 0)
(2.13874 0.0473393 0)
(2.92106 0.0954511 0)
(3.92882 0.127856 0)
(5.02755 0.193025 0)
(6.19419 0.246374 0)
(7.38454 0.301607 0)
(8.5388 0.351347 0)
(9.4924 0.397938 0)
(9.88838 0.414048 0)
(9.75815 0.3991 0)
(8.88647 0.36209 0)
(7.66149 0.308961 0)
(6.30789 0.250172 0)
(4.94711 0.183562 0)
(3.64405 0.12688 0)
(2.45815 0.0903363 0)
(1.41065 0.0395619 0)
(0.714188 0.0243013 0)
(-0.000477144 0.00587528 0)
(1.22667 0.0116104 0)
(2.28631 0.0531688 0)
(3.0648 0.103019 0)
(4.07096 0.159995 0)
(5.14711 0.215748 0)
(6.29572 0.282223 0)
(7.47253 0.339047 0)
(8.61467 0.403032 0)
(9.53393 0.454667 0)
(9.89271 0.471299 0)
(9.73986 0.449341 0)
(8.8418 0.406116 0)
(7.59941 0.343459 0)
(6.21437 0.271476 0)
(4.82534 0.204326 0)
(3.51928 0.141321 0)
(2.34614 0.095899 0)
(1.32496 0.0398211 0)
(0.656953 0.0247424 0)
(-0.0507402 0.00680372 0)
(1.33265 0.0205316 0)
(2.43533 0.0573274 0)
(3.1992 0.126484 0)
(4.19769 0.169595 0)
(5.26499 0.250387 0)
(6.4036 0.313899 0)
(7.56163 0.386723 0)
(8.69686 0.458222 0)
(9.57429 0.515865 0)
(9.8925 0.533122 0)
(9.71134 0.506526 0)
(8.77578 0.453639 0)
(7.50412 0.382288 0)
(6.11678 0.308853 0)
(4.73263 0.230105 0)
(3.4205 0.156229 0)
(2.23507 0.0974388 0)
(1.24082 0.0411134 0)
(0.590975 0.0275719 0)
(-0.111379 0.00754883 0)
(1.52156 0.0188356 0)
(2.63975 0.0732309 0)
(3.38531 0.138308 0)
(4.38522 0.20591 0)
(5.42163 0.285038 0)
(6.54145 0.365322 0)
(7.68304 0.44215 0)
(8.7889 0.526865 0)
(9.61701 0.589474 0)
(9.89422 0.605326 0)
(9.68263 0.574439 0)
(8.71331 0.513611 0)
(7.41667 0.428953 0)
(5.99583 0.33831 0)
(4.5824 0.257492 0)
(3.2654 0.172321 0)
(2.08876 0.103748 0)
(1.15773 0.044941 0)
(0.528528 0.0285179 0)
(-0.173449 0.00998321 0)
(1.65062 0.0268424 0)
(2.81937 0.0747431 0)
(3.55848 0.169029 0)
(4.53718 0.224804 0)
(5.5733 0.32651 0)
(6.67986 0.406281 0)
(7.79155 0.505187 0)
(8.89172 0.603872 0)
(9.65713 0.670121 0)
(9.88566 0.687744 0)
(9.63525 0.648821 0)
(8.62096 0.578717 0)
(7.29498 0.481092 0)
(5.86581 0.381438 0)
(4.46519 0.279139 0)
(3.14192 0.186435 0)
(1.9424 0.107421 0)
(1.06965 0.0497951 0)
(0.460724 0.0330515 0)
(-0.245226 0.0116593 0)
(1.91736 0.028105 0)
(3.10831 0.0996871 0)
(3.81129 0.184473 0)
(4.77651 0.27441 0)
(5.7754 0.377984 0)
(6.85251 0.479807 0)
(7.94355 0.589884 0)
(9.00359 0.700207 0)
(9.69295 0.771142 0)
(9.87365 0.783998 0)
(9.5811 0.737269 0)
(8.5241 0.650894 0)
(7.16621 0.537361 0)
(5.71111 0.416812 0)
(4.28189 0.30352 0)
(2.96189 0.194479 0)
(1.77143 0.113178 0)
(0.9795 0.0590253 0)
(0.373982 0.0368158 0)
(-0.331113 0.015955 0)
(2.09433 0.0385709 0)
(3.3156 0.0996972 0)
(4.0234 0.21332 0)
(4.98021 0.309461 0)
(5.99006 0.443325 0)
(7.0451 0.561199 0)
(8.0893 0.689852 0)
(9.12582 0.815739 0)
(9.72316 0.885325 0)
(9.84897 0.89422 0)
(9.50383 0.830867 0)
(8.39379 0.732002 0)
(7.00444 0.596681 0)
(5.53423 0.451559 0)
(4.1201 0.319186 0)
(2.80515 0.20183 0)
(1.63069 0.117734 0)
(0.908921 0.0626597 0)
(0.294094 0.0437077 0)
(-0.428414 0.0191303 0)
(2.47113 0.0403507 0)
(3.71126 0.147484 0)
(4.38576 0.270734 0)
(5.29564 0.38504 0)
(6.24795 0.531131 0)
(7.26107 0.67274 0)
(8.27996 0.825559 0)
(9.25573 0.961369 0)
(9.74642 1.02817 0)
(9.82129 1.02549 0)
(9.41622 0.941291 0)
(8.25134 0.812585 0)
(6.83301 0.653843 0)
(5.34324 0.490587 0)
(3.89897 0.328248 0)
(2.60797 0.212727 0)
(1.46414 0.120294 0)
(0.820065 0.0796452 0)
(0.202325 0.0530913 0)
(-0.542384 0.0254494 0)
(2.73095 0.0635648 0)
(4.01202 0.146806 0)
(4.66096 0.300792 0)
(5.57265 0.468398 0)
(6.53442 0.652323 0)
(7.50902 0.823255 0)
(8.48192 0.991765 0)
(9.37771 1.13257 0)
(9.76037 1.18756 0)
(9.78184 1.17147 0)
(9.30824 1.05744 0)
(8.08001 0.90229 0)
(6.61985 0.712542 0)
(5.11307 0.515889 0)
(3.6902 0.352598 0)
(2.40267 0.221307 0)
(1.33967 0.13168 0)
(0.755464 0.103015 0)
(0.064332 0.072639 0)
(-0.712423 0.0301353 0)
(3.31582 0.0828066 0)
(4.51194 0.254129 0)
(5.14627 0.450556 0)
(5.98982 0.622671 0)
(6.87289 0.826974 -1.27597e-32)
(7.77956 1.01297 4.67356e-33)
(8.72403 1.20256 0)
(9.49853 1.33691 0)
(9.76354 1.37711 0)
(9.73719 1.34123 0)
(9.18411 1.19141 0)
(7.88566 0.995532 0)
(6.40256 0.768145 0)
(4.87944 0.553446 0)
(3.42527 0.359654 0)
(2.18015 0.211235 0)
(1.20813 0.118508 0)
(0.66634 0.0860958 0)
(-0.118799 0.0689963 0)
(-0.941113 0.0049656 0)
(3.8905 0.210284 -1.43746e-18)
(4.96542 0.345969 1.20316e-18)
(5.53454 0.602991 0)
(6.35989 0.831417 -6.95268e-19)
(7.21251 1.05562 5.6167e-19)
(8.06616 1.25645 -4.95904e-33)
(8.97195 1.45574 0)
(9.58297 1.57558 -8.45309e-20)
(9.75046 1.60116 1.38721e-19)
(9.65793 1.53819 -2.16521e-21)
(9.00641 1.34912 0)
(7.62088 1.10687 -2.59838e-19)
(6.07167 0.829762 -3.30438e-19)
(4.52135 0.576019 5.70984e-19)
(3.11621 0.365415 -4.65353e-19)
(1.88862 0.177721 0)
(1.06901 0.0765898 -1.75553e-19)
(0.614403 0.0282441 0)
(-0.187486 0.0070427 -9.13163e-19)
(-1.0314 -0.0275823 1.06534e-18)
(4.24061 0.411027 1.22367e-19)
(5.38462 0.608188 -5.27362e-18)
(5.91591 0.899013 7.79256e-19)
(6.67873 1.10189 2.84851e-18)
(7.46487 1.3196 1.24671e-18)
(8.26526 1.52426 -1.97995e-18)
(9.12498 1.73439 0)
(9.60735 1.84386 0)
(9.70717 1.86201 -2.16994e-19)
(9.5497 1.77517 0)
(8.80776 1.54431 8.35693e-19)
(7.35159 1.25487 2.8406e-19)
(5.78846 0.923715 -2.9853e-20)
(4.25734 0.610716 -7.18531e-19)
(2.86684 0.346004 0)
(1.6788 0.155351 0)
(0.977461 0.0676391 -2.98026e-18)
(0.580956 0.00510685 7.50519e-18)
(-0.0458438 -0.0157038 -4.47615e-18)
(-1.00157 -0.109914 -5.2832e-18)
(4.46305 0.651301 4.85767e-18)
(5.60984 0.923956 -1.89465e-18)
(6.11321 1.16299 -6.86585e-19)
(6.86561 1.36131 -5.28347e-18)
(7.63177 1.59285 4.16745e-19)
(8.39639 1.81301 5.43961e-18)
(9.1976 2.02414 -1.55526e-18)
(9.58565 2.12632 0)
(9.63195 2.13493 4.22881e-19)
(9.41608 2.02237 8.463e-19)
(8.6116 1.75184 -2.38576e-18)
(7.11766 1.40766 1.30352e-18)
(5.54398 1.02261 -1.07082e-18)
(4.01895 0.659678 2.28838e-18)
(2.69513 0.388009 0)
(1.57666 0.192588 -8.49276e-19)
(0.939377 0.0877683 0)
(0.596262 0.0482343 4.58276e-18)
(-0.0110038 -0.0374494 -1.0854e-17)
(-0.913575 -0.143621 6.81409e-18)
(4.59389 0.890995 -1.99505e-17)
(5.8743 1.3097 1.04038e-17)
(6.35776 1.53772 1.83798e-18)
(7.05169 1.71208 0)
(7.75456 1.92537 3.5751e-18)
(8.47358 2.13334 -4.21027e-18)
(9.21347 2.33366 1.59812e-18)
(9.52641 2.42281 0)
(9.53092 2.41969 -2.8965e-19)
(9.26904 2.28091 -5.17383e-19)
(8.42398 1.96477 2.52852e-18)
(6.9141 1.56711 0)
(5.36581 1.1229 -2.36631e-18)
(3.88402 0.735986 1.2554e-18)
(2.58015 0.41649 3.30582e-18)
(1.55147 0.191664 -2.89722e-18)
(0.946549 0.0832035 4.63568e-18)
(0.637407 0.0382153 -1.02337e-17)
(0.12988 -0.0214869 6.47535e-18)
(-0.764375 -0.155051 -8.08061e-18)
(4.6349 1.11576 1.13332e-17)
(5.89563 1.58621 -1.08541e-17)
(6.38777 1.76834 5.94545e-18)
(7.08241 1.96434 -9.11698e-18)
(7.78781 2.21341 7.04456e-18)
(8.48322 2.44913 -1.63005e-18)
(9.17869 2.64891 9.03001e-20)
(9.4382 2.72921 1.64568e-18)
(9.40708 2.71004 1.88508e-19)
(9.11268 2.54176 -1.56171e-18)
(8.25114 2.18005 -5.71275e-18)
(6.74269 1.72428 -2.23002e-18)
(5.20977 1.23324 -5.36067e-20)
(3.74812 0.804672 -4.95065e-18)
(2.52362 0.50547 -5.42775e-20)
(1.59597 0.248402 4.61058e-18)
(1.0436 0.15134 -1.42551e-18)
(0.774427 0.128986 -7.7063e-19)
(0.277188 0.0148665 0)
(-0.676163 -0.169694 1.85416e-17)
(4.65113 1.24992 0)
(6.0193 1.97092 3.06156e-18)
(6.51253 2.13068 0)
(7.15492 2.32603 -3.32504e-19)
(7.79624 2.55098 -7.86259e-18)
(8.45327 2.77474 3.29428e-18)
(9.10937 2.96624 -1.94649e-18)
(9.3299 3.0382 -2.30432e-18)
(9.27491 2.9998 -1.92367e-19)
(8.96539 2.80431 1.30618e-19)
(8.09631 2.3996 3.21801e-18)
(6.60215 1.89311 5.02882e-18)
(5.09624 1.35958 -3.23733e-18)
(3.70645 0.919794 5.65711e-18)
(2.47668 0.545616 -4.528e-18)
(1.57787 0.298524 0)
(1.08064 0.186618 -1.11557e-17)
(0.820069 0.157753 1.49609e-17)
(0.362725 0.0383104 1.15229e-18)
(-0.507074 -0.146132 -2.08311e-17)
(4.54515 1.44283 -3.68409e-19)
(5.93631 2.19698 -7.24695e-18)
(6.46353 2.31605 -2.59507e-17)
(7.08373 2.55921 1.60677e-17)
(7.73487 2.83396 -5.21915e-18)
(8.38397 3.08199 3.67864e-18)
(9.01298 3.27934 -4.41186e-18)
(9.20695 3.34351 1.40172e-18)
(9.13783 3.2837 2.08361e-19)
(8.81593 3.06538 -1.92193e-19)
(7.94634 2.62172 -4.0375e-18)
(6.47359 2.06968 -5.93222e-18)
(4.98559 1.49695 3.75582e-18)
(3.61019 1.00949 -2.10067e-18)
(2.48056 0.640719 5.20789e-18)
(1.69901 0.373737 0)
(1.25499 0.26142 -7.29352e-18)
(1.01459 0.251716 1.08297e-17)
(0.579199 0.123315 2.05026e-17)
(-0.397331 -0.114457 -2.39794e-17)
(4.52072 1.64929 -3.65256e-17)
(5.99352 2.50086 1.86702e-17)
(6.4821 2.64009 1.67385e-17)
(7.05652 2.89851 -1.72236e-17)
(7.6739 3.13259 3.53279e-19)
(8.29172 3.37819 8.33756e-18)
(8.89724 3.57935 1.93111e-18)
(9.07459 3.63937 5.54086e-19)
(8.99341 3.55941 -7.64523e-19)
(8.6583 3.32079 1.05935e-18)
(7.79674 2.84326 3.41645e-18)
(6.3488 2.24877 9.2831e-18)
(4.91009 1.63844 0)
(3.62095 1.12661 1.93168e-19)
(2.50871 0.695749 -1.49955e-17)
(1.71045 0.445939 3.57091e-18)
(1.29469 0.346867 1.65801e-17)
(1.06252 0.325221 -4.8903e-18)
(0.66309 0.192736 1.02362e-17)
(-0.316894 -0.102112 -8.28005e-19)
(4.367 1.76077 4.08386e-19)
(5.85815 2.65324 1.65426e-17)
(6.37325 2.7841 1.21811e-17)
(6.94991 3.10044 -2.85257e-17)
(7.57037 3.38663 2.10112e-17)
(8.17695 3.65583 -9.14216e-18)
(8.76473 3.86669 -2.10041e-18)
(8.92974 3.92314 -2.81196e-18)
(8.83761 3.82533 -1.22079e-19)
(8.49204 3.56709 -2.92958e-18)
(7.64684 3.05836 0)
(6.23299 2.42531 -3.91879e-18)
(4.84136 1.7786 4.48691e-18)
(3.57001 1.22922 5.74207e-18)
(2.53511 0.814443 -3.39523e-18)
(1.85597 0.545941 -7.94131e-18)
(1.48454 0.443743 -2.40137e-18)
(1.24385 0.455939 -1.41851e-19)
(0.819523 0.280713 0)
(-0.234252 -0.0670747 0)
(4.28445 1.91878 -1.67353e-17)
(5.83625 2.91413 0)
(6.33732 3.06649 1.32414e-17)
(6.87028 3.38374 -5.68432e-18)
(7.47127 3.64778 -2.17945e-17)
(8.04982 3.91896 6.12468e-18)
(8.62235 4.13632 -2.3068e-18)
(8.7779 4.19261 2.39831e-18)
(8.67774 4.08059 -3.75401e-19)
(8.32811 3.80464 -2.11354e-18)
(7.50362 3.26692 2.16876e-18)
(6.12639 2.60094 1.27877e-17)
(4.78517 1.92107 3.75639e-19)
(3.57715 1.35216 -6.22719e-18)
(2.56521 0.887341 1.14564e-17)
(1.86269 0.64915 3.92164e-20)
(1.52311 0.544566 2.57125e-18)
(1.32836 0.540989 -1.26392e-17)
(0.934622 0.38173 1.28654e-17)
(-0.187759 -0.0513758 -1.50413e-17)
(4.12432 2.00789 -7.23324e-21)
(5.69542 3.02523 0)
(6.1987 3.17211 0)
(6.73353 3.54247 5.60456e-18)
(7.33716 3.85742 8.03291e-18)
(7.9088 4.16085 -5.38949e-18)
(8.46952 4.3904 6.20988e-18)
(8.62058 4.4472 0)
(8.51811 4.32436 -1.02917e-19)
(8.17074 4.03359 4.82401e-18)
(7.36885 3.46954 7.88651e-18)
(6.02805 2.7756 -4.896e-18)
(4.72939 2.06686 -5.99029e-18)
(3.5429 1.46931 1.41166e-17)
(2.60574 1.01984 -4.129e-18)
(2.01422 0.764023 -4.86075e-18)
(1.69646 0.680004 -2.98942e-18)
(1.45042 0.692605 -1.40873e-17)
(1.01343 0.465756 2.00198e-18)
(-0.172879 -0.0432892 1.6894e-17)
(4.02674 2.11006 -6.45827e-18)
(5.6334 3.24801 -1.00758e-17)
(6.12118 3.41922 5.09417e-19)
(6.62681 3.77114 -1.79645e-20)
(7.21265 4.07154 3.36996e-18)
(7.76264 4.38184 -1.22161e-17)
(8.3153 4.62239 0)
(8.46558 4.6837 -7.23593e-19)
(8.36493 4.55517 5.69663e-19)
(8.02365 4.25418 7.94015e-18)
(7.24225 3.66793 -1.72839e-18)
(5.93146 2.94976 2.25354e-18)
(4.66944 2.2164 0)
(3.5275 1.59685 -7.70327e-18)
(2.61631 1.11354 9.47472e-18)
(2.00405 0.886468 0)
(1.72899 0.781432 -6.54975e-18)
(1.55796 0.798621 1.9228e-17)
(1.11779 0.571551 2.32756e-18)
(-0.158208 -0.0456216 -2.1452e-17)
(3.87038 2.17867 -1.3672e-17)
(5.48836 3.34016 1.68938e-17)
(5.98326 3.51338 0)
(6.48031 3.89858 1.28783e-17)
(7.0676 4.24132 0)
(7.613 4.58333 1.23807e-17)
(8.16038 4.83765 0)
(8.3117 4.90289 0)
(8.21548 4.7711 -6.46137e-19)
(7.88097 4.46392 -8.0001e-18)
(7.11734 3.86003 -1.48716e-17)
(5.83337 3.12039 2.93252e-18)
(4.60551 2.36634 1.09344e-17)
(3.49499 1.72485 8.73855e-18)
(2.65467 1.2547 -3.07332e-17)
(2.14201 1.01979 -1.2179e-17)
(1.86372 0.943045 7.1528e-18)
(1.6078 0.949221 0)
(1.13303 0.639174 2.03307e-17)
(-0.16347 -0.0491207 -2.37958e-17)
(3.77329 2.26178 1.4675e-17)
(5.41192 3.53094 -1.81356e-17)
(5.89421 3.73383 0)
(6.36411 4.09814 -3.58855e-19)
(6.93572 4.41617 -5.29565e-18)
(7.46587 4.76375 0)
(8.00871 5.03078 -1.49377e-18)
(8.16157 5.10282 3.61823e-19)
(8.06954 4.9706 -5.38774e-20)
(7.74073 4.66056 5.47452e-19)
(6.99246 4.04407 0)
(5.73208 3.28588 1.20841e-17)
(4.53254 2.51291 3.08808e-19)
(3.45437 1.85406 4.79511e-18)
(2.63715 1.37262 5.57967e-18)
(2.11097 1.14825 0)
(1.88569 1.04273 -1.19786e-17)
(1.70485 1.06465 2.35715e-17)
(1.16572 0.725162 -2.49983e-17)
(-0.179874 -0.065988 5.23778e-17)
(3.63315 2.31471 0)
(5.28033 3.60919 0)
(5.76111 3.82063 -9.89818e-18)
(6.22428 4.21455 0)
(6.79769 4.56053 0)
(7.32152 4.9289 1.40239e-17)
(7.85876 5.20825 -1.5884e-18)
(8.01217 5.28539 8.25401e-19)
(7.92332 5.15295 3.39704e-19)
(7.59874 4.84179 0)
(6.86517 4.21716 -2.56956e-18)
(5.62748 3.44342 -1.00352e-17)
(4.45383 2.65515 -1.2352e-17)
(3.41128 1.97942 -5.02432e-18)
(2.666 1.51509 6.23307e-18)
(2.22623 1.30474 -1.4607e-17)
(1.98456 1.21891 2.62153e-17)
(1.71123 1.20205 2.29313e-19)
(1.12677 0.768108 -2.38623e-17)
(-0.218505 -0.0901447 -3.63086e-18)
(3.55102 2.39263 0)
(5.20079 3.775 -1.33918e-17)
(5.67153 4.014 1.09378e-17)
(6.11493 4.39253 0)
(6.67508 4.71486 0)
(7.18134 5.08051 -2.99909e-17)
(7.71181 5.36719 0)
(7.8655 5.45023 0)
(7.77895 5.31883 -4.95612e-19)
(7.45832 5.00793 1.94419e-18)
(6.7387 4.37866 -2.09396e-17)
(5.52418 3.59367 0)
(4.37094 2.79166 -1.36845e-17)
(3.35642 2.10529 2.49633e-19)
(2.62685 1.64188 -2.02371e-17)
(2.16253 1.43765 7.87952e-18)
(1.96474 1.32774 1.33969e-19)
(1.75261 1.30098 -2.82266e-17)
(1.06529 0.791742 1.26578e-17)
(-0.271098 -0.12921 3.88001e-18)
(3.43149 2.44329 0)
(5.08805 3.84659 -1.47521e-17)
(5.55405 4.09128 1.13781e-17)
(5.98932 4.49601 2.50418e-17)
(6.55155 4.84515 5.62114e-18)
(7.04793 5.224 -3.45195e-18)
(7.57095 5.51601 2.7925e-18)
(7.72251 5.6016 -7.30163e-18)
(7.63726 5.47024 5.31173e-19)
(7.3202 5.16008 1.18299e-17)
(6.61352 4.52812 1.74759e-17)
(5.42097 3.73487 3.39855e-18)
(4.28809 2.9246 1.9718e-17)
(3.30544 2.23097 1.22472e-17)
(2.64052 1.78613 1.45449e-17)
(2.25169 1.60758 -8.66517e-18)
(2.03206 1.50895 -1.03912e-17)
(1.73757 1.41655 1.23032e-17)
(0.982715 0.785726 -6.98504e-18)
(-0.355443 -0.173679 1.27754e-17)
(3.36639 2.51365 1.97597e-17)
(5.01621 3.99189 2.35206e-17)
(5.47123 4.26013 5.92884e-18)
(5.8915 4.65306 4.78186e-20)
(6.44109 4.98421 -1.89743e-17)
(6.92039 5.35988 8.5221e-18)
(7.4364 5.65371 -2.98622e-18)
(7.58628 5.74127 6.66173e-20)
(7.5024 5.61 -1.24475e-18)
(7.18908 5.30084 -1.34177e-17)
(6.49335 4.66716 1.06137e-18)
(5.32273 3.86786 0)
(4.20672 3.05122 0)
(3.25012 2.35957 -6.38717e-18)
(2.58471 1.92602 -2.37822e-17)
(2.15511 1.7311 1.8701e-17)
(1.97862 1.59871 1.13871e-17)
(1.72727 1.4895 0)
(0.876678 0.759925 2.30026e-17)
(-0.428465 -0.276726 -1.38989e-17)
(3.27254 2.56396 -1.03943e-17)
(4.9239 4.05958 8.68155e-18)
(5.36782 4.32642 -1.31094e-17)
(5.78371 4.74431 -1.49428e-17)
(6.33199 5.10089 -6.96905e-18)
(6.80428 5.49041 2.48229e-18)
(7.31377 5.78695 0)
(7.4595 5.87413 8.83235e-18)
(7.37589 5.74108 -3.94125e-19)
(7.06507 5.43223 0)
(6.37834 4.79683 0)
(5.22944 3.99368 2.37669e-18)
(4.1303 3.17516 3.25117e-18)
(3.19825 2.49145 -6.87803e-18)
(2.57421 2.08378 1.70893e-17)
(2.20897 1.91183 -2.025e-17)
(1.99673 1.76618 -2.43049e-17)
(1.66261 1.52537 2.18619e-17)
(0.723367 0.701932 -8.44779e-18)
(-0.402265 -0.467704 4.971e-18)
(3.22743 2.62916 1.13862e-17)
(4.8611 4.1885 0)
(5.29507 4.47473 0)
(5.70122 4.88195 -4.96692e-18)
(6.23573 5.22569 4.01489e-18)
(6.69777 5.61626 -1.99909e-19)
(7.2009 5.91465 -1.02408e-17)
(7.34353 6.00159 -1.04229e-17)
(7.26054 5.86651 1.96827e-18)
(6.95105 5.55674 -1.28264e-18)
(6.27174 4.91954 3.03232e-18)
(5.14294 4.1121 -2.06906e-17)
(4.05783 3.29244 -2.11287e-17)
(3.14509 2.62543 -3.65194e-18)
(2.50729 2.2439 0)
(2.07605 2.05956 -2.06038e-19)
(1.86757 1.85517 1.30738e-17)
(1.55496 1.53669 -2.3365e-17)
(0.691565 0.501263 1.77669e-17)
(-0.310952 -0.519693 1.61914e-17)
(3.1598 2.68594 -2.43516e-17)
(4.78578 4.25358 -1.0003e-17)
(5.21016 4.53467 6.6641e-20)
(5.61023 4.96252 5.79051e-18)
(6.14428 5.33126 0)
(6.60299 5.73791 2.03976e-17)
(7.09862 6.0417 1.26741e-17)
(7.23589 6.12842 -1.19957e-18)
(7.15209 5.99066 -7.09842e-19)
(6.84156 5.67931 -1.25545e-18)
(6.16927 5.04134 1.16266e-18)
(5.06162 4.23197 1.81182e-17)
(3.98853 3.41239 2.04897e-17)
(3.08891 2.76595 3.52733e-18)
(2.47619 2.4272 1.77483e-17)
(2.1111 2.26384 0)
(1.8187 2.04028 0)
(1.32159 1.51853 1.5116e-17)
(0.215916 0.483295 -9.92157e-20)
(-0.169936 0.729998 -1.68566e-17)
(3.13384 2.75469 1.3028e-17)
(4.73231 4.37019 3.08976e-17)
(5.14855 4.66828 -4.77247e-17)
(5.5407 5.08566 2.98328e-17)
(6.06287 5.44537 -3.8502e-18)
(6.51278 5.85653 2.51123e-17)
(6.99954 6.16576 0)
(7.132 6.25413 9.80164e-18)
(7.04759 6.11536 0)
(6.73541 5.80287 1.38948e-17)
(6.07103 5.16604 -1.81116e-18)
(4.98434 4.35622 2.0254e-18)
(3.92479 3.54209 2.35227e-17)
(3.03795 2.92377 -7.54478e-18)
(2.4113 2.62903 -9.15169e-18)
(1.94167 2.49781 0)
(1.56136 2.27427 0)
(0.791209 1.59461 0)
(0.300045 1.33114 -8.42648e-18)
(0.204834 2.42246 -5.23936e-18)
(3.08556 2.81533 0)
(4.66949 4.4325 0)
(5.07903 4.72394 1.69362e-17)
(5.46312 5.1578 -2.49979e-17)
(5.98362 5.53994 1.78333e-17)
(6.42836 5.96771 -2.30813e-17)
(6.90452 6.286 -1.3039e-18)
(7.0314 6.37726 1.00819e-18)
(6.94571 6.2379 5.19192e-19)
(6.63183 5.92533 -1.58759e-17)
(5.97668 5.29155 2.97768e-18)
(4.91249 4.48379 1.8475e-17)
(3.86521 3.67943 -2.34368e-17)
(2.98798 3.09721 -2.55534e-17)
(2.3826 2.86227 8.68981e-18)
(1.96862 2.76338 0)
(1.47457 2.38497 1.20879e-17)
(0.896472 1.8808 1.36628e-17)
(0.477916 2.42153 -1.7344e-17)
(0.476132 2.97898 2.06373e-17)
(3.07016 2.88194 0)
(4.6254 4.53657 2.38991e-17)
(5.0285 4.84571 -4.37728e-18)
(5.40492 5.27007 3.03177e-17)
(5.91218 5.64248 -1.87357e-17)
(6.34569 6.07433 0)
(6.81122 6.40061 0)
(6.9333 6.49639 0)
(6.84694 6.35823 -9.62097e-19)
(6.53256 6.04669 3.69949e-19)
(5.88736 5.4171 0)
(4.84499 4.61315 -1.82512e-17)
(3.80863 3.81911 0)
(2.95789 3.28485 1.83122e-17)
(2.37053 3.09868 -1.2652e-17)
(1.88157 3.00556 -1.00703e-17)
(1.26754 2.661 -2.21077e-17)
(0.875477 2.49449 -1.36226e-17)
(0.625808 3.08869 -2.37432e-17)
(0.663485 3.31333 2.00938e-17)
(3.03482 2.93978 -7.92021e-18)
(4.57582 4.59503 1.63552e-19)
(4.97408 4.89836 -4.57146e-18)
(5.34082 5.33901 -2.40486e-17)
(5.84317 5.72954 0)
(6.26749 6.17436 0)
(6.72127 6.51092 0)
(6.83815 6.61242 -4.52567e-19)
(6.75074 6.4761 8.27745e-19)
(6.43616 6.16706 0)
(5.80015 5.54191 0)
(4.7795 4.74363 0)
(3.75879 3.96268 0)
(2.93914 3.48131 1.39899e-17)
(2.37605 3.34762 3.42064e-17)
(1.9232 3.24198 1.0258e-17)
(1.44753 2.86724 2.27664e-17)
(1.16715 2.98552 -2.04526e-17)
(0.917912 3.51964 7.79446e-18)
(0.794876 3.60819 0)
(3.02604 2.99877 7.69617e-18)
(4.54228 4.69048 -4.78474e-17)
(4.9323 5.01155 -1.39068e-17)
(5.29218 5.44676 -3.51138e-18)
(5.78001 5.82767 4.4152e-18)
(6.18997 6.27337 -3.14612e-17)
(6.63163 6.61702 2.16168e-18)
(6.74426 6.7257 1.28649e-17)
(6.65612 6.59284 0)
(6.34245 6.28725 -1.17248e-18)
(5.71467 5.66566 1.06987e-18)
(4.71594 4.87355 0)
(3.71784 4.10929 0)
(2.94154 3.68089 -1.74836e-17)
(2.41486 3.5829 3.41341e-18)
(1.92031 3.44672 -9.74805e-18)
(1.37494 3.19696 2.22733e-17)
(1.03552 3.54653 1.96775e-17)
(0.87612 3.83156 -3.39788e-17)
(0.775922 3.86859 1.79333e-17)
(2.99316 3.04891 1.37779e-17)
(4.49536 4.74669 4.44463e-17)
(4.88036 5.0612 1.69726e-17)
(5.22859 5.5143 0)
(5.71034 5.91409 0)
(6.10888 6.37021 2.37725e-17)
(6.53757 6.72191 -1.41853e-17)
(6.6468 6.83839 -1.1826e-17)
(6.55815 6.70924 -3.78163e-19)
(6.24604 6.40787 1.09298e-17)
(5.62633 5.78876 -2.1532e-17)
(4.65299 5.00313 0)
(3.68752 4.2607 0)
(2.95613 3.88506 -1.28745e-17)
(2.44859 3.82315 -1.60878e-17)
(1.95601 3.69713 0)
(1.58144 3.521 -3.18542e-17)
(1.31899 3.88043 -5.90117e-18)
(1.18866 4.21591 3.42997e-17)
(0.922048 4.2327 -1.78131e-17)
(2.97962 3.10505 -2.6021e-17)
(4.45575 4.84092 -2.10377e-17)
(4.82786 5.17442 0)
(5.16825 5.62173 0)
(5.63405 6.01301 0)
(6.01795 6.46842 0)
(6.43449 6.82519 1.50551e-17)
(6.54127 6.94879 -1.38127e-17)
(6.45373 6.82457 0)
(6.14482 6.5274 -9.67359e-18)
(5.53553 5.91051 3.90895e-17)
(4.59181 5.13092 1.73553e-18)
(3.66549 4.41174 2.65031e-18)
(2.98727 4.08784 2.19578e-17)
(2.51947 4.04557 -1.44941e-17)
(2.02985 3.88112 0)
(1.66644 3.84145 1.05589e-17)
(1.3587 4.41063 5.20863e-19)
(1.00149 4.5297 -5.59673e-18)
(0.63084 4.6185 1.08064e-17)
(2.93708 3.14145 1.23832e-17)
(4.3921 4.89017 -1.99624e-17)
(4.75892 5.21428 0)
(5.08414 5.67989 -5.51366e-18)
(5.54375 6.0954 2.10909e-17)
(5.91843 6.5631 0)
(6.32319 6.92675 0)
(6.4266 7.05587 2.48303e-17)
(6.34103 6.93619 -1.95233e-19)
(6.03639 6.64364 9.34722e-18)
(5.44165 6.03067 -1.85851e-17)
(4.53253 5.25718 1.30715e-17)
(3.65323 4.56197 0)
(3.0301 4.28648 -1.21239e-17)
(2.58187 4.26433 7.3933e-18)
(2.1385 4.14985 8.17192e-18)
(1.82172 4.20761 0)
(1.53804 4.64945 5.39688e-18)
(1.15044 5.12191 9.56325e-18)
(1.02806 5.29613 2.72988e-18)
(2.9023 3.19981 -2.32148e-17)
(4.33551 4.98289 2.842e-17)
(4.68454 5.32533 2.16311e-17)
(5.00209 5.78117 -5.71461e-18)
(5.44527 6.18828 -3.18375e-17)
(5.80793 6.6572 0)
(6.20173 7.0256 1.16537e-17)
(6.30321 7.15946 -1.01156e-17)
(6.22055 7.04389 -7.94044e-19)
(5.92258 6.75569 -8.14769e-18)
(5.34733 6.14846 -8.34946e-19)
(4.47621 5.38077 -1.46084e-17)
(3.64715 4.70812 1.81082e-17)
(3.08177 4.4733 5.64261e-18)
(2.6789 4.46253 -1.3106e-17)
(2.25221 4.3274 1.49772e-17)
(2.00696 4.39939 0)
(1.78174 5.21117 0)
(1.50928 5.61093 2.68346e-18)
(0.506983 5.6629 -7.59891e-18)
(2.8491 3.22616 1.12723e-17)
(4.24801 5.0309 2.64135e-17)
(4.59637 5.35964 -2.08711e-17)
(4.89658 5.8307 2.07745e-17)
(5.33458 6.2639 3.03517e-17)
(5.69013 6.74678 0)
(6.07381 7.12145 -1.25298e-17)
(6.17333 7.25985 -1.20634e-17)
(6.09403 7.14669 0)
(5.8045 6.86185 0)
(5.25296 6.2615 0)
(4.42158 5.4989 0)
(3.64652 4.84753 -2.06476e-17)
(3.13833 4.64482 -7.91544e-18)
(2.76031 4.63329 0)
(2.40508 4.53446 -7.36855e-18)
(2.26105 4.83121 0)
(2.32072 5.17985 -3.46915e-18)
(2.36724 5.10152 5.82494e-18)
(1.32405 5.13962 -3.10909e-18)
(2.78588 3.2828 -2.11158e-17)
(4.17305 5.12738 -1.66104e-17)
(4.50002 5.47593 -1.2824e-17)
(4.79607 5.93474 -1.93908e-17)