/*--------------------------------*- C++ -*----------------------------------*\
| =========                 |                                                 |
| \\      /  F ield         | OpenFOAM: The Open Source CFD Toolbox           |
|  \\    /   O peration     | Version:  2412                                  |
|   \\  /    A nd           | Website:  www.openfoam.com                      |
|    \\/     M anipulation  |                                                 |
\*---------------------------------------------------------------------------*/
FoamFile
{
    version     2.0;
    format      ascii;
    arch        "LSB;label=32;scalar=64";
    class       volScalarField;
    location    "4";
    object      p;
}
// * * * * * * * * * * * * * * * * * * * * * * * * * * * * * * * * * * * * * //

dimensions      [0 2 -2 0 0 0 0];

internalField   nonuniform List<scalar> 
2200
(
0.312804
0.312022
0.313529
0.314196
0.318048
0.330222
0.353175
0.389285
0.442761
0.512428
0.575828
0.614136
0.630248
0.637501
0.639109
0.639932
0.640831
0.641164
0.640835
0.641749
0.307375
0.307295
0.308766
0.311814
0.320064
0.335206
0.361922
0.402177
0.459192
0.531106
0.592522
0.627303
0.639502
0.643383
0.641041
0.639641
0.63835
0.64007
0.637642
0.638094
0.306807
0.306048
0.307067
0.314258
0.330541
0.352608
0.383988
0.431016
0.493332
0.566568
0.625266
0.656759
0.666245
0.662103
0.6568
0.648528
0.641967
0.640765
0.641419
0.642169
0.318576
0.316585
0.315667
0.324528
0.342495
0.37277
0.414286
0.470831
0.537984
0.614632
0.673702
0.702724
0.708711
0.695756
0.683353
0.669732
0.660563
0.655528
0.65849
0.66114
0.352853
0.349544
0.345771
0.347247
0.357038
0.389049
0.438423
0.508279
0.585602
0.672836
0.734482
0.757658
0.755877
0.735242
0.716458
0.702935
0.700988
0.702422
0.707383
0.710797
0.408659
0.404725
0.401852
0.398344
0.397633
0.417051
0.460493
0.532678
0.626163
0.728443
0.795906
0.814727
0.799582
0.780591
0.767905
0.767878
0.77512
0.780707
0.785026
0.789297
0.476738
0.472033
0.470898
0.467737
0.463677
0.46404
0.491014
0.547978
0.653714
0.781584
0.858945
0.86602
0.843134
0.840568
0.846354
0.863697
0.874813
0.882148
0.885263
0.890494
0.551696
0.546965
0.54316
0.537502
0.538863
0.529385
0.543599
0.586605
0.688108
0.831442
0.922474
0.920554
0.916346
0.932868
0.951501
0.976491
0.985212
1.0002
1.00484
1.01004
0.639991
0.634332
0.624944
0.611602
0.621121
0.634816
0.651995
0.693466
0.781107
0.911088
1.00851
1.0446
1.06686
1.09158
1.10874
1.1151
1.11414
1.13616
1.14796
1.15424
0.762461
0.753832
0.73793
0.721874
0.737886
0.783343
0.829627
0.893313
0.979807
1.10169
1.21148
1.27991
1.31892
1.3296
1.3266
1.30582
1.30056
1.3228
1.3419
1.35129
0.962498
0.953357
0.935024
0.913041
0.911333
0.965615
1.05605
1.1753
1.29019
1.42402
1.5481
1.63495
1.66381
1.63212
1.59394
1.57057
1.58748
1.61479
1.63475
1.64438
1.22805
1.21941
1.19956
1.17234
1.15856
1.18971
1.29699
1.47746
1.677
1.87851
2.02534
2.07847
2.04501
1.96978
1.92752
1.93168
1.96161
1.99585
2.01891
2.02865
1.54161
1.53158
1.50736
1.47015
1.44581
1.44945
1.53477
1.72991
2.02439
2.35574
2.53238
2.49096
2.40149
2.33636
2.32728
2.36137
2.40286
2.44783
2.47448
2.48508
1.89442
1.88391
1.85686
1.81
1.77441
1.76596
1.81117
1.94968
2.23268
2.62463
2.83355
2.79266
2.76487
2.77391
2.81079
2.86142
2.91727
2.97307
3.00414
3.01591
2.29477
2.28286
2.25235
2.19924
2.15287
2.14035
2.17196
2.2473
2.42751
2.74687
2.99378
3.1108
3.23357
3.32706
3.38762
3.4498
3.52108
3.58242
3.61518
3.62748
2.7146
2.70478
2.67583
2.62131
2.5608
2.53666
2.58623
2.67851
2.84347
3.12066
3.41692
3.67179
3.86241
3.97013
4.03494
4.1159
4.20163
4.26896
4.30442
4.31713
3.14494
3.13242
3.09936
3.04034
2.97118
2.93525
2.99692
3.16429
3.47371
3.85987
4.21702
4.4724
4.5868
4.66538
4.74157
4.84945
4.95019
5.0207
5.05698
5.06924
3.56132
3.55243
3.52105
3.459
3.38093
3.32689
3.38111
3.59855
4.04303
4.57308
5.00833
5.24492
5.32257
5.41161
5.52163
5.64857
5.7579
5.83272
5.87101
5.88354
3.94881
3.93838
3.90766
3.84869
3.76913
3.70837
3.75037
3.96509
4.42703
5.015
5.54634
5.88654
6.06432
6.20887
6.36007
6.5081
6.62425
6.69975
6.73771
6.74979
4.25953
4.25307
4.22684
4.1714
4.09904
4.04561
4.08679
4.31678
4.78183
5.40573
6.0473
6.55001
6.85639
7.05926
7.24685
7.41069
7.52799
7.60081
7.6379
7.6498
4.44006
4.43756
4.42156
4.38219
4.3279
4.2909
4.3632
4.65581
5.20491
5.93008
6.71165
7.3263
7.71004
7.96062
8.16942
8.32929
8.4418
8.50958
8.54346
8.5538
4.42982
4.432
4.42805
4.4106
4.39102
4.40565
4.54147
4.92058
5.61298
6.48585
7.42301
8.14692
8.57139
8.85756
9.08338
9.24898
9.35414
9.41592
9.44555
9.45779
4.13544
4.14737
4.16666
4.1845
4.22602
4.32513
4.55758
5.05621
5.90389
6.93982
8.05414
8.90319
9.39354
9.73796
9.97668
10.1423
10.253
10.3233
10.3575
10.3738
3.47016
3.49638
3.55197
3.63981
3.78235
4.01371
4.40531
5.06192
6.07482
7.30174
8.61079
9.59099
10.1708
10.5721
10.8404
11.0204
11.1448
11.2274
11.2996
11.3196
2.27432
2.35214
2.49612
2.7153
3.03815
3.48518
4.10432
4.96872
6.1701
7.62468
9.123
10.231
10.9022
11.3557
11.6604
11.8721
12.0252
12.1485
12.2225
12.2398
0.442544
0.583127
0.923984
1.42309
2.02446
2.74919
3.64457
4.78805
6.21872
7.9184
9.59082
10.8202
11.5818
12.0947
12.4499
12.7109
12.9028
13.0456
13.1289
13.1517
-2.19331
-1.72645
-0.931904
-0.066944
0.861394
1.8804
3.06568
4.5235
6.24355
8.20226
10.0715
11.4452
12.3319
12.9507
13.4019
13.7451
14.0299
14.2632
14.3968
14.4254
-5.48536
-4.21899
-2.88297
-1.63992
-0.378858
0.969764
2.4797
4.22697
6.22797
8.43824
10.5164
12.0516
13.0934
13.8553
14.4429
14.9193
15.3007
15.6358
15.9814
16.0652
-8.06991
-6.49718
-4.86235
-3.27936
-1.65362
0.0668588
1.90835
3.93989
6.1846
8.61474
10.8715
12.5593
13.7505
14.6454
15.3445
15.916
16.4207
16.7492
17.1356
17.2195
-10.1525
-8.37485
-6.59632
-4.78401
-2.85593
-0.824609
1.32235
3.63584
6.11468
8.74455
11.1579
12.9871
14.3013
15.2971
16.0794
16.6919
17.2505
17.5999
17.9409
18.0263
-11.8006
-9.84822
-8.05723
-6.07979
-3.93573
-1.65423
0.76546
3.32415
6.01861
8.82615
11.3795
13.3351
14.7498
15.8155
16.6359
17.2514
17.7889
18.1596
18.4869
18.5938
-12.9367
-10.9991
-9.26678
-7.19532
-4.88876
-2.38233
0.259817
3.0165
5.89708
8.8572
11.5386
13.598
15.0801
16.1742
16.9944
17.6056
18.1479
18.5446
18.889
19.0107
-13.8742
-11.9005
-10.2565
-8.1077
-5.6682
-3.00053
-0.20225
2.71456
5.74923
8.84128
11.6345
13.7653
15.2806
16.3979
17.2426
17.8762
18.4047
18.7939
19.1426
19.2784
-14.6654
-12.6998
-11.0495
-8.77622
-6.24077
-3.50587
-0.615221
2.42379
5.58113
8.78651
11.672
13.8624
15.4176
16.5692
17.436
18.08
18.629
19.0372
19.3793
19.4828
-15.351
-13.371
-11.6421
-9.23
-6.65669
-3.90625
-0.962976
2.1566
5.40453
8.70052
11.6633
13.9198
15.5268
16.7176
17.618
18.2981
18.8338
19.2259
19.5687
19.6897
-15.9115
-13.9009
-12.0641
-9.53524
-6.97051
-4.2169
-1.24673
1.91788
5.2289
8.59334
11.6288
13.9674
15.642
16.8812
17.8156
18.5091
19.0474
19.4408
19.7721
19.8985
-16.3746
-14.3488
-12.3699
-9.76524
-7.22132
-4.46726
-1.48514
1.70614
5.06152
8.47919
11.5904
14.0201
15.7701
17.0509
18.0043
18.7123
19.2571
19.665
19.9942
20.1262
-16.7163
-14.7226
-12.6636
-9.99503
-7.45348
-4.69103
-1.69447
1.51873
4.90707
8.36885
11.5502
14.0576
15.8713
17.2018
18.19
18.9218
19.4829
19.8932
20.2097
20.3392
-17.0454
-15.0302
-12.9333
-10.2678
-7.71062
-4.91751
-1.89
1.34995
4.76548
8.26114
11.4962
14.0687
15.9423
17.3237
18.3551
19.1269
19.7089
20.139
20.4719
20.605
-17.394
-15.4031
-13.2587
-10.6227
-8.01988
-5.17238
-2.09135
1.18704
4.62581
8.14408
11.4142
14.0376
15.9706
17.4194
18.5202
19.3419
19.9565
20.3975
20.7301
20.8614
-17.7097
-15.7451
-13.6325
-11.0342
-8.37813
-5.46076
-2.31186
1.01223
4.47073
8.00454
11.2982
13.9656
15.9672
17.492
18.6571
19.537
20.2025
20.6816
21.0264
21.1605
-18.0636
-16.1029
-14.0102
-11.4158
-8.73453
-5.75732
-2.54709
0.81514
4.28908
7.8378
11.1536
13.8605
15.9267
17.5244
18.7733
19.735
20.4561
20.9768
21.3422
21.4748
-18.4753
-16.5539
-14.4131
-11.7866
-9.05696
-6.03523
-2.78407
0.597171
4.08311
7.65059
10.9891
13.7278
15.8504
17.5238
18.8533
19.8997
20.7094
21.3039
21.701
21.8455
-18.8203
-16.857
-14.7348
-12.0865
-9.33543
-6.28633
-3.01611
0.368086
3.86549
7.45436
10.8122
13.5716
15.7355
17.4773
18.8927
20.0352
20.9372
21.6161
22.0635
22.2169
-19.1673
-17.1621
-14.9785
-12.3094
-9.57047
-6.51247
-3.24202
0.139419
3.64966
7.25839
10.6265
13.3933
15.5835
17.3777
18.8705
20.1127
21.1327
21.9207
22.4342
22.5715
-19.496
-17.5224
-15.2971
-12.5688
-9.78754
-6.72186
-3.46148
-0.0803927
3.4433
7.06599
10.4327
13.1956
15.3985
17.2269
18.7808
20.1199
21.2615
22.1916
22.8167
22.8215
-19.778
-17.7836
-15.5985
-12.8113
-9.98811
-6.92389
-3.67341
-0.289772
3.24413
6.87098
10.2234
12.9691
15.1693
17.0149
18.6078
20.0143
21.2677
22.3474
23.2049
23.3017
-19.9946
-17.9364
-15.6508
-12.9114
-10.1753
-7.12511
-3.87962
-0.494691
3.04153
6.65973
9.98552
12.7001
14.8793
16.7188
18.3209
19.7511
21.0522
22.2058
22.9144
22.8892
-20.1577
-18.04
-15.7175
-13.0422
-10.3834
-7.32487
-4.08204
-0.697979
2.83227
6.43135
9.72164
12.3908
14.5253
16.3266
17.8975
19.2848
20.4957
21.4839
21.9368
21.9968
-20.3878
-18.4406
-16.2144
-13.4481
-10.6277
-7.53827
-4.29148
-0.908475
2.60971
6.18348
9.43261
12.0424
14.1061
15.8296
17.315
18.5983
19.6469
20.3118
20.5742
20.7691
-20.6778
-18.8925
-16.7173
-13.8014
-10.8857
-7.78135
-4.51661
-1.13448
2.36944
5.91559
9.11985
11.6553
13.6197
15.2268
16.5711
17.6871
18.5667
19.0945
19.2773
19.5406
-20.9202
-18.977
-16.6751
-13.8674
-11.1557
-8.03896
-4.76268
-1.38219
2.10787
5.62607
8.7825
11.2308
13.0716
14.5228
15.6855
16.6118
17.3266
17.7338
17.8394
18.1855
-21.078
-19.0434
-16.7942
-14.1079
-11.4477
-8.29408
-5.02594
-1.64758
1.82808
5.31716
8.42181
10.772
12.4661
13.7319
14.6965
15.4197
15.8986
16.1677
16.3069
16.6674
-21.3393
-19.4983
-17.3646
-14.5945
-11.7326
-8.55694
-5.28938
-1.91569
1.54237
4.9983
8.04499
10.2889
11.8237
12.8866
13.6389
14.1669
14.424
14.4377
14.354
14.586
-21.6629
-19.8567
-17.6127
-14.8022
-11.9655
-8.80867
-5.53562
-2.17445
1.26148
4.67799
7.65984
9.79524
11.171
12.0264
12.5477
12.8677
12.8763
12.3143
11.3804
11.4903
-21.8244
-19.8766
-17.5353
-14.8248
-12.151
-9.00991
-5.75898
-2.41772
0.990954
4.36146
7.27228
9.30297
10.5338
11.1965
11.4695
11.4928
11.2569
10.1562
7.88882
5.81365
-21.95
-20.0177
-17.7736
-15.0587
-12.3355
-9.18452
-5.96377
-2.64272
0.735642
4.05659
6.89335
8.82992
9.94151
10.4398
10.4771
10.1506
9.57608
8.4869
4.55139
-5.99013
-22.1929
-20.3293
-18.0818
-15.2988
-12.5177
-9.36293
-6.15617
-2.85425
0.494336
3.76355
6.52284
8.37169
9.38712
9.75328
9.60039
9.01958
8.23769
7.50627
6.86222
2.72939
-22.4097
-20.5212
-18.1889
-15.4076
-12.6892
-9.53557
-6.34835
-3.06655
0.254065
3.47052
6.15316
7.92231
8.86692
9.15252
8.93177
8.39005
7.77657
7.71844
8.61847
7.64683
-22.5653
-20.6682
-18.3568
-15.5872
-12.8822
-9.7095
-6.55107
-3.28577
0.00942011
3.17629
5.79204
7.49828
8.4057
8.69116
8.54508
8.22355
7.85053
7.76843
8.25974
7.74452
-22.7637
-20.8939
-18.6065
-15.83
-13.1018
-9.90159
-6.7677
-3.51377
-0.24095
2.88333
5.44838
7.11815
8.02695
8.3981
8.44111
8.28937
8.00475
7.71826
7.82639
7.76389
-22.9657
-21.1037
-18.7959
-16.0342
-13.3138
-10.0973
-6.99136
-3.74821
-0.494159
2.59726
5.13198
6.80028
7.7518
8.24642
8.47743
8.46772
8.23243
7.87165
7.89678
7.9452
-23.1268
-21.2752
-18.957
-16.2285
-13.5068
-10.289
-7.2156
-3.98165
-0.743608
2.3257
4.85403
6.55921
7.58869
8.2025
8.55161
8.69827
8.58107
8.22833
8.21312
8.26379
-23.2634
-21.4376
-19.1245
-16.4279
-13.6724
-10.4821
-7.43399
-4.20466
-0.980894
2.07708
4.62325
6.40199
7.5337
8.24975
8.69218
8.96084
9.0583
8.83469
8.84431
8.89799
-23.3669
-21.5715
-19.2586
-16.5898
-13.8022
-10.6714
-7.63348
-4.40787
-1.19697
1.86052
4.44668
6.31765
7.57391
8.40263
8.93937
9.33386
9.67225
9.77048
9.83121
9.89683
-23.4027
-21.6493
-19.344
-16.701
-13.9005
-10.8387
-7.79879
-4.58331
-1.38569
1.68345
4.32979
6.2961
7.68669
8.66373
9.34379
9.90322
10.4375
10.7937
10.9761
11.0558
-23.3575
-21.6658
-19.3688
-16.7511
-13.9627
-10.9608
-7.92227
-4.72528
-1.54304
1.54815
4.26819
6.33051
7.84186
8.99081
9.87935
10.6098
11.2402
11.7302
12.0223
12.113
-23.2083
-21.5955
-19.3123
-16.7273
-13.9682
-11.0168
-7.99425
-4.82675
-1.66656
1.4489
4.24078
6.39757
8.02922
9.34479
10.3984
11.2089
11.8419
12.3254
12.6458
12.7483
-22.9326
-21.4051
-19.1455
-16.6029
-13.8902
-10.9937
-8.00606
-4.88264
-1.75282
1.37657
4.21954
6.46253
8.19091
9.57474
10.6527
11.449
12.0609
12.53
12.8631
12.9815
-22.4886
-21.0556
-18.8399
-16.3605
-13.7122
-10.8831
-7.95329
-4.89042
-1.80214
1.3157
4.17829
6.46222
8.20196
9.55778
10.6088
11.4081
12.0333
12.5041
12.8418
12.9792
-21.8328
-20.5208
-18.3694
-15.9735
-13.4159
-10.6804
-7.83375
-4.85088
-1.82657
1.24744
4.08539
6.34461
8.05286
9.3958
10.4631
11.2899
11.9312
12.4042
12.7403
12.8998
-20.9139
-19.747
-17.7052
-15.4337
-12.9936
-10.378
-7.64337
-4.7714
-1.84207
1.15324
3.92286
6.14006
7.84476
9.20603
10.2932
11.1305
11.7759
12.2569
12.5973
12.781
-19.709
-18.7297
-16.8321
-14.7194
-12.433
-9.97165
-7.38211
-4.65153
-1.8513
1.02723
3.70848
5.88249
7.57116
8.91628
9.98662
10.8186
11.4724
11.9736
12.3353
12.5456
-18.1982
-17.437
-15.7559
-13.846
-11.7432
-9.45986
-7.04132
-4.48585
-1.84913
0.88253
3.44746
5.52935
7.13584
8.41703
9.44974
10.2641
10.924
11.4398
11.8208
12.0586
-16.4791
-15.9796
-14.5307
-12.8225
-10.911
-8.82608
-6.61454
-4.2687
-1.82401
0.719128
3.10458
5.03574
6.51617
7.69845
8.6646
9.42757
10.0583
10.568
10.963
11.2279
-14.8061
-14.4791
-13.2102
-11.6682
-9.94049
-8.07686
-6.09615
-3.98759
-1.77375
0.527155
2.67825
4.42273
5.75174
6.79391
7.63666
8.2928
8.83524
9.27937
9.63531
9.88984
-13.114
-12.913
-11.7162
-10.299
-8.78202
-7.1876
-5.47601
-3.64419
-1.68938
0.350752
2.27361
3.83824
5.01514
5.91534
6.6249
7.1554
7.57594
7.89818
8.13793
8.30536
-11.0016
-10.872
-9.76042
-8.66366
-7.46733
-6.17093
-4.75963
-3.2121
-1.53702
0.229429
1.92595
3.30972
4.33656
5.10407
5.70098
6.13309
6.43888
6.65085
6.78879
6.87221
-8.03518
-7.88602
-7.35231
-6.78442
-5.95702
-5.01032
-3.9244
-2.68458
-1.32456
0.150553
1.59711
2.76974
3.62967
4.24489
4.71068
5.0359
5.24096
5.36569
5.43006
5.47088
-5.01895
-4.97815
-4.86109
-4.70439
-4.27156
-3.71055
-2.99762
-2.1017
-1.06371
0.1299
1.31579
2.26903
2.96916
3.44378
3.78507
4.01585
4.15241
4.23164
4.26693
4.29129
-2.86568
-2.86004
-2.85467
-2.85003
-2.70536
-2.4742
-2.09625
-1.49871
-0.747857
0.172646
1.09547
1.83981
2.39489
2.75729
3.00243
3.16506
3.26176
3.3305
3.36685
3.40636
-1.54129
-1.5528
-1.56753
-1.58381
-1.545
-1.49714
-1.30796
-0.920478
-0.414063
0.249781
0.937937
1.50532
1.93506
2.21575
2.40138
2.52921
2.60817
2.68122
2.71579
2.74141
-0.833476
-0.858352
-0.88301
-0.89888
-0.865073
-0.823934
-0.692106
-0.444072
-0.126559
0.333804
0.848511
1.28308
1.61199
1.83501
1.98857
2.10327
2.16671
2.23661
2.25985
2.27461
-0.462264
-0.485497
-0.524596
-0.544051
-0.503128
-0.428608
-0.304175
-0.135418
0.0765031
0.415013
0.814331
1.15251
1.40592
1.58577
1.71668
1.8274
1.86571
1.91976
1.93193
1.93851
-0.244606
-0.261802
-0.296977
-0.316218
-0.292571
-0.227113
-0.133395
0.0126742
0.193053
0.475922
0.792793
1.05996
1.26285
1.40993
1.51057
1.61449
1.62797
1.65865
1.66364
1.66769
-0.0799374
-0.0916673
-0.115185
-0.128798
-0.13571
-0.117825
-0.0819662
0.0697025
0.234348
0.489336
0.746946
0.964925
1.13602
1.26108
1.31588
1.40097
1.40455
1.42133
1.4211
1.42264
0.0550367
0.0462373
0.0296405
0.0232548
0.000295042
-0.00206729
-0.00438349
0.124632
0.232752
0.461305
0.676988
0.859069
1.00052
1.1097
1.11879
1.1804
1.18243
1.19678
1.1959
1.19638
0.158984
0.151948
0.139354
0.142828
0.125389
0.144056
0.136538
0.220489
0.246403
0.442444
0.601825
0.750239
0.85135
0.943448
0.938095
0.978047
0.98159
0.995084
0.994913
0.995789
0.242477
0.2363
0.228091
0.236855
0.224794
0.262368
0.26254
0.319542
0.295899
0.455794
0.53122
0.659275
0.706077
0.785626
0.787957
0.81801
0.820125
0.830365
0.82936
0.829799
0.301325
0.294274
0.285014
0.293442
0.276728
0.310445
0.306725
0.361191
0.344283
0.470773
0.473229
0.595118
0.597625
0.667832
0.674753
0.698559
0.697432
0.703422
0.699952
0.698695
0.326981
0.318873
0.307376
0.309699
0.286185
0.308174
0.292522
0.347073
0.348473
0.449265
0.433157
0.543781
0.535191
0.586777
0.590304
0.607094
0.601791
0.604142
0.59852
0.595389
0.324862
0.316697
0.30636
0.305015
0.282744
0.29965
0.273816
0.319482
0.318858
0.405497
0.397956
0.490854
0.485013
0.521091
0.517471
0.528583
0.520323
0.520711
0.514651
0.510549
0.309778
0.302168
0.296298
0.296995
0.279482
0.296977
0.269562
0.306152
0.292378
0.363114
0.358682
0.430392
0.425417
0.453165
0.445855
0.454775
0.446367
0.446497
0.441614
0.437487
0.292077
0.284636
0.283519
0.285288
0.271872
0.289237
0.265126
0.297892
0.275509
0.328449
0.318015
0.370995
0.36363
0.386153
0.378629
0.386632
0.379671
0.379971
0.376637
0.37291
0.271064
0.26328
0.264519
0.264944
0.253704
0.2686
0.247492
0.278267
0.25463
0.296077
0.281147
0.318311
0.311627
0.328144
0.321091
0.327536
0.321702
0.321687
0.319195
0.315895
0.242752
0.234904
0.23725
0.236283
0.226586
0.238442
0.219076
0.246002
0.224249
0.260424
0.245447
0.272876
0.266807
0.278949
0.272037
0.27672
0.271517
0.271103
0.269162
0.266236
0.209165
0.201833
0.204854
0.203308
0.195463
0.204982
0.187478
0.209674
0.18921
0.221518
0.207883
0.229957
0.22348
0.233052
0.22696
0.230247
0.225849
0.225076
0.223556
0.221102
0.17358
0.167465
0.170704
0.169075
0.16309
0.170837
0.155912
0.174285
0.155402
0.182094
0.168646
0.187014
0.180634
0.188112
0.183118
0.185517
0.182073
0.181342
0.180261
0.17837
0.137337
0.132412
0.135282
0.133731
0.129183
0.135551
0.123173
0.138584
0.121592
0.14333
0.130101
0.144633
0.138618
0.144455
0.140383
0.142254
0.139689
0.139119
0.138365
0.136933
0.0997848
0.0961628
0.0983173
0.0969189
0.0934956
0.0985285
0.0885204
0.101412
0.0865328
0.104318
0.0919325
0.103366
0.0978858
0.102325
0.0991132
0.100574
0.0986334
0.0981899
0.0976324
0.0966317
0.0608373
0.0581122
0.0599366
0.0588722
0.0559283
0.0603778
0.0516382
0.0625216
0.0508948
0.063949
0.0541949
0.0628575
0.0582748
0.0615962
0.0589228
0.0601212
0.0586301
0.0584065
0.0579897
0.0572597
0.0207686
0.0192421
0.0203549
0.0199823
0.0178204
0.0212741
0.0159382
0.0221499
0.0156177
0.0222542
0.0169811
0.0215205
0.0188077
0.0208567
0.0192695
0.0201976
0.0192869
0.0193572
0.0190947
0.0186949
11.5396
15.9592
17.0695
18.483
19.643
20.6857
21.6176
22.4435
23.0783
23.3043
16.3534
18.5111
19.2208
20.1271
20.9264
21.625
22.2199
22.7016
22.985
23.008
18.9841
20.0504
20.5927
21.1568
21.6637
22.1069
22.472
22.7485
22.8987
22.9179
20.4393
21.0909
21.449
21.8082
22.1193
22.385
22.5954
22.744
22.8277
22.8524
21.3859
21.7316
21.9541
22.1725
22.3662
22.5325
22.6611
22.749
22.7928
22.8193
21.9188
22.1457
22.2775
22.4183
22.5374
22.6375
22.7154
22.7688
22.7998
22.819
22.2736
22.4081
22.485
22.5765
22.6528
22.7159
22.7651
22.8002
22.8209
22.8422
22.4902
22.5818
22.6361
22.6927
22.7405
22.7789
22.8105
22.834
22.852
22.8707
22.6552
22.7139
22.7431
22.7745
22.8051
22.8307
22.8541
22.8758
22.8908
22.9124
22.776
22.8078
22.8283
22.8497
22.8727
22.8951
22.9143
22.9353
22.9509
22.9707
22.8799
22.9033
22.9238
22.9401
22.9583
22.9773
22.9928
23.0096
23.0193
23.0356
22.9895
23.0063
23.0239
23.0385
23.0511
23.0627
23.0726
23.0808
23.0853
23.0972
23.0929
23.1017
23.1147
23.1249
23.1325
23.1388
23.1464
23.1529
23.1553
23.1645
23.1861
23.1904
23.1995
23.2058
23.21
23.2149
23.2214
23.2289
23.2328
23.2433
23.298
23.2868
23.2808
23.2759
23.2737
23.2757
23.282
23.2941
23.3084
23.3361
23.4248
23.3694
23.3378
23.3189
23.3102
23.3102
23.3192
23.339
23.3704
23.4399
)
;

boundaryField
{
    wall-4
    {
        type            zeroGradient;
    }
    pressure-outlet-7
    {
        type            fixedValue;
        value           uniform 0;
    }
    velocity-inlet-6
    {
        type            zeroGradient;
    }
    velocity-inlet-5
    {
        type            zeroGradient;
    }
    frontAndBackPlanes
    {
        type            empty;
    }
}


// ************************************************************************* //
