/*--------------------------------*- C++ -*----------------------------------*\
| =========                 |                                                 |
| \\      /  F ield         | OpenFOAM: The Open Source CFD Toolbox           |
|  \\    /   O peration     | Version:  2412                                  |
|   \\  /    A nd           | Website:  www.openfoam.com                      |
|    \\/     M anipulation  |                                                 |
\*---------------------------------------------------------------------------*/
FoamFile
{
    version     2.0;
    format      ascii;
    arch        "LSB;label=32;scalar=64";
    class       surfaceScalarField;
    location    "4";
    object      phi;
}
// * * * * * * * * * * * * * * * * * * * * * * * * * * * * * * * * * * * * * //

dimensions      [0 3 -1 0 0 0 0];

oriented        oriented;

internalField   nonuniform List<scalar> 
4262
(
0.00264889
0.217864
0.00155123
0.829751
-0.000658098
1.76935
-0.00206088
3.16657
-0.00439483
5.18694
-0.00577009
8.01574
-0.00631943
11.8477
-0.0074272
16.8208
-0.00787293
22.8823
-0.00581274
29.5263
-0.00377765
29.5263
-0.00215782
22.8802
-0.00158283
16.8192
-0.000764344
11.8463
-0.00091716
8.01452
-0.00115665
5.18484
-0.00151195
3.16552
-0.00355147
1.76918
-0.00376059
0.828862
0.216752
-0.00524315
0.223107
-0.00332045
0.827828
-0.00610863
1.77214
-0.0100846
3.17055
-0.0153007
5.19215
-0.0211364
8.02158
-0.0222972
11.8489
-0.0230303
16.8216
-0.0222678
22.8815
-0.0176768
29.5217
-0.0115365
29.5202
-0.00540181
22.8741
-0.00259322
16.8164
0.0001871
11.8435
0.00102924
8.01368
0.000772187
5.1851
0.000358833
3.16594
-0.000517751
1.77006
0.00354976
0.824795
0.220302
-0.016169
0.239276
-0.0166933
0.828352
-0.0229305
1.77838
-0.0288458
3.17646
-0.0335909
5.1969
-0.0346927
8.02268
-0.0403833
11.8545
-0.0410644
16.8223
-0.0384692
22.8789
-0.0265392
29.5098
-0.0133535
29.507
-0.00488569
22.8656
0.00196055
16.8095
0.00474175
11.8408
0.00910516
8.00931
0.00911255
5.18509
0.00944367
3.1656
0.00993141
1.76957
0.0138846
0.820842
0.234186
-0.0284134
0.267689
-0.0383269
0.838266
-0.0507452
1.7908
-0.0568425
3.18256
-0.0611121
5.20117
-0.0598315
8.0214
-0.060599
11.8553
-0.0550726
16.8167
-0.0506513
22.8745
-0.0351767
29.4943
-0.0188407
29.4907
-0.00591913
22.8527
0.00860716
16.795
0.0170767
11.8323
0.0252617
8.00113
0.0290145
5.18134
0.030531
3.16409
0.0270848
1.77302
0.0234072
0.824519
0.257594
-0.0368089
0.304498
-0.0627721
0.864229
-0.0719009
1.79993
-0.0854325
3.19609
-0.0952146
5.21095
-0.0950386
8.02122
-0.0893172
11.8496
-0.0782993
16.8057
-0.0679608
22.8642
-0.0437093
29.47
-0.0189512
29.4659
0.00113471
22.8326
0.0215189
16.7746
0.0376884
11.8161
0.0491243
7.98969
0.0513495
5.17911
0.0491947
3.16624
0.0500323
1.77218
0.0316905
0.842861
0.289284
-0.0383336
0.342832
-0.0856149
0.91151
-0.0846559
1.79897
-0.105116
3.21655
-0.120055
5.22589
-0.129932
8.0311
-0.123438
11.8431
-0.109943
16.7922
-0.0895151
22.8437
-0.0538455
29.4344
-0.0165901
29.4286
0.0151563
22.8008
0.0426729
16.7471
0.0641779
11.7946
0.0695567
7.98431
0.0678055
5.18087
0.0613967
3.17265
0.0729931
1.76058
0.0339079
0.881946
0.323192
-0.0385601
0.381392
-0.0972429
0.970193
-0.0936619
1.79538
-0.11449
3.23738
-0.130588
5.24199
-0.147908
8.04842
-0.148074
11.8433
-0.139486
16.7836
-0.111224
22.8155
-0.0637399
29.3869
-0.0156276
29.3805
0.0284428
22.7568
0.0543395
16.7212
0.0701959
11.7788
0.0708057
7.9837
0.0703905
5.18128
0.0676902
3.17535
0.0828711
1.7454
0.0321227
0.932695
0.355315
-0.0420498
0.423442
-0.102737
1.03088
-0.104749
1.7974
-0.118131
3.25076
-0.142097
5.26595
-0.162648
8.06897
-0.176448
11.8571
-0.176425
16.7836
-0.147608
22.7866
-0.0765877
29.3159
-0.00456446
29.3085
0.0471884
22.705
0.0697568
16.6986
0.0789272
11.7696
0.0784111
7.98422
0.0734936
5.1862
0.075828
3.17302
0.0861632
1.73507
0.0345958
0.984262
0.38991
-0.048572
0.472014
-0.114866
1.09717
-0.129373
1.8119
-0.134763
3.25615
-0.172636
5.30383
-0.192784
8.08912
-0.206496
11.8708
-0.202128
16.7792
-0.173873
22.7584
-0.0865632
29.2286
0.00340229
29.2185
0.0578291
22.6506
0.0848109
16.6716
0.0980494
11.7564
0.103564
7.9787
0.0886733
5.20109
0.0982967
3.16339
0.0969763
1.73639
0.0407527
1.04049
0.430663
-0.0614404
0.533454
-0.14437
1.1801
-0.191111
1.85864
-0.199636
3.26468
-0.238279
5.34247
-0.247094
8.09793
-0.245344
11.869
-0.228119
16.762
-0.19602
22.7263
-0.100929
29.1335
-0.00208661
29.1197
0.0596674
22.5888
0.10483
16.6265
0.136377
11.7248
0.155584
7.9595
0.143692
5.21298
0.156547
3.15054
0.123871
1.76906
0.0526122
1.11174
0.483275
-0.0800874
0.613541
-0.186414
1.28643
-0.274491
1.94672
-0.296485
3.28667
-0.317351
5.36334
-0.331144
8.11172
-0.312962
11.8508
-0.275357
16.7244
-0.224514
22.6754
-0.113904
29.0229
-0.000408443
29.0062
0.0832912
22.5051
0.152584
16.5572
0.206041
11.6713
0.223182
7.94235
0.230414
5.20575
0.23436
3.14659
0.16405
1.83937
0.0703188
1.20548
0.553594
-0.0946299
0.708171
-0.219578
1.41138
-0.331568
2.05871
-0.374714
3.32982
-0.391589
5.38021
-0.422381
8.14252
-0.406602
11.8351
-0.347155
16.665
-0.270257
22.5985
-0.136307
28.8889
0.00372885
28.8662
0.118923
22.3899
0.221474
16.4546
0.280491
11.6123
0.289546
7.9333
0.310593
5.1847
0.292669
3.16452
0.195672
1.93637
0.0838915
1.31726
0.637486
-0.107146
0.815317
-0.249352
1.55358
-0.385013
2.19437
-0.457822
3.40263
-0.480188
5.40258
-0.521321
8.18365
-0.513545
11.8273
-0.450364
16.6018
-0.344618
22.4928
-0.15933
28.7036
0.0347029
28.6721
0.1865
22.2382
0.305902
16.3352
0.358998
11.5592
0.360986
7.93131
0.377626
5.16806
0.333391
3.20875
0.21748
2.05228
0.0915573
1.44318
0.729043
-0.117182
0.932499
-0.277656
1.71406
-0.439358
2.35607
-0.54432
3.50759
-0.588593
5.44685
-0.635499
8.23056
-0.637341
11.8291
-0.580889
16.5453
-0.448533
22.3604
-0.184135
28.4392
0.0926106
28.3954
0.270221
22.0605
0.392468
16.213
0.44847
11.5032
0.457477
7.92231
0.459035
5.1665
0.383598
3.28419
0.243997
2.19188
0.100337
1.58684
0.82938
-0.130629
1.06313
-0.314299
1.89773
-0.500647
2.54242
-0.636287
3.64323
-0.699029
5.50959
-0.73476
8.26629
-0.731088
11.8255
-0.675062
16.4893
-0.525849
22.2112
-0.216384
28.1298
0.107464
28.0715
0.309716
21.8583
0.442441
16.0803
0.5146
11.4311
0.543189
7.89372
0.528824
5.18087
0.425667
3.38735
0.264989
2.35256
0.106042
1.74579
0.935422
-0.132878
1.19601
-0.327428
2.09228
-0.539466
2.75446
-0.709492
3.81325
-0.795205
5.5953
-0.813499
8.28458
-0.801883
11.8138
-0.737924
16.4253
-0.567898
22.0412
-0.25663
27.8185
0.0669546
27.748
0.299185
21.6261
0.455181
15.9243
0.560313
11.3259
0.619219
7.83481
0.593344
5.20675
0.466646
3.51405
0.283989
2.53522
0.109562
1.92021
1.04498
-0.149835
1.34584
-0.367544
2.30999
-0.597413
2.98433
-0.788912
4.00475
-0.900016
5.70641
-0.924769
8.30933
-0.912231
11.8013
-0.847023
16.3601
-0.648672
21.8429
-0.309518
27.4793
0.0548751
27.3836
0.330125
21.3508
0.510605
15.7438
0.637144
11.1994
0.703644
7.76831
0.646735
5.26365
0.487478
3.6733
0.286741
2.73595
0.105025
2.10193
1.15001
-0.14507
1.49091
-0.373556
2.53847
-0.635742
3.24652
-0.878225
4.24724
-1.04228
5.87046
-1.09425
8.3613
-1.09215
11.7992
-1.03249
16.3005
-0.793325
21.6037
-0.375869
27.0619
0.0801944
26.9275
0.406074
21.0249
0.612786
15.5371
0.745443
11.0667
0.794078
7.71967
0.706289
5.35144
0.522086
3.85751
0.301099
2.95694
0.102912
2.30012
1.25292
-0.168352
1.65926
-0.422782
2.7929
-0.705162
3.5289
-0.971102
4.51318
-1.17556
6.07492
-1.275
8.46074
-1.29607
11.8203
-1.21627
16.2207
-0.937794
21.3252
-0.454283
26.5784
0.078026
26.3952
0.457149
20.6458
0.710428
15.2838
0.857367
10.9198
0.879232
7.69781
0.746415
5.48426
0.527954
4.07597
0.289732
3.19516
0.0861231
2.50373
1.33904
-0.156303
1.81557
-0.422346
3.05895
-0.737025
3.84358
-1.05228
4.82843
-1.31408
6.33672
-1.45957
8.60623
-1.48727
11.848
-1.37773
16.1111
-1.06564
21.0131
-0.549739
26.0625
0.0256246
25.8198
0.465378
20.2061
0.771791
14.9774
0.924115
10.7675
0.916729
7.7052
0.755974
5.64501
0.520841
4.3111
0.271156
3.44485
0.06472
2.71016
1.40376
-0.177718
1.99328
-0.459504
3.34073
-0.788334
4.17241
-1.12728
5.16738
-1.43078
6.64022
-1.62729
8.80274
-1.6765
11.8972
-1.54953
15.9842
-1.2059
20.6695
-0.671359
25.5279
-0.0534688
25.2019
0.451892
19.7007
0.805933
14.6233
0.955868
10.6175
0.914822
7.74624
0.719634
5.8402
0.468459
4.56228
0.22582
3.68749
0.0313969
2.90458
1.43516
-0.174939
2.16822
-0.469458
3.63525
-0.821196
4.52414
-1.19561
5.54179
-1.55184
6.99645
-1.81054
9.06144
-1.89138
11.978
-1.75166
15.8444
-1.38949
20.3073
-0.831059
24.9695
-0.162427
24.5333
0.417315
19.1209
0.805114
14.2355
0.938063
10.4846
0.861342
7.82296
0.663378
6.03817
0.423869
4.80178
0.195251
3.9161
0.00917891
3.09066
1.44434
-0.20298
2.3712
-0.508602
3.94087
-0.869809
4.88535
-1.26996
5.94194
-1.66974
7.39623
-1.98288
9.37458
-2.10168
12.0968
-1.97864
15.7214
-1.61231
19.941
-1.01776
24.3749
-0.294456
23.81
0.331278
18.4952
0.720033
13.8468
0.828179
10.3764
0.728358
7.92278
0.536221
6.2303
0.32133
5.01667
0.125172
4.11226
-0.0137905
3.22962
1.43055
-0.23234
2.60354
-0.547557
4.25609
-0.929097
5.26689
-1.36991
6.38275
-1.8044
7.83071
-2.15357
9.72376
-2.31982
12.2631
-2.23539
15.637
-1.86854
19.5742
-1.23559
23.742
-0.468793
23.0432
0.156205
17.8702
0.513137
13.4898
0.593436
10.2962
0.498638
8.01758
0.335392
6.39355
0.157666
5.1944
0.00776865
4.26216
-0.0487036
3.28609
1.38184
-0.315371
2.91891
-0.646685
4.5874
-1.09008
5.71029
-1.55386
6.84654
-1.99378
8.27063
-2.36487
10.0949
-2.57575
12.474
-2.50978
15.571
-2.14777
19.2121
-1.49189
23.0861
-0.710019
22.2613
-0.107095
17.2673
0.201888
13.1809
0.267068
10.231
0.195035
8.08962
0.077055
6.51153
-0.0455911
5.31705
-0.151642
4.36821
-0.128996
3.26344
1.25285
-0.454034
3.37295
-0.946077
5.07945
-1.42685
6.19105
-1.86853
7.28822
-2.29486
8.69696
-2.65861
10.4586
-2.87096
12.6863
-2.79734
15.4974
-2.43581
18.8506
-1.7741
22.4244
-1.00891
21.4962
-0.456215
16.7146
-0.18914
12.9138
-0.119127
10.161
-0.154351
8.12484
-0.232175
6.58935
-0.298439
5.38331
-0.294184
4.36396
-0.196082
3.16534
1.05677
-0.325759
3.69871
-0.733468
5.48716
-1.1195
6.57708
-1.55016
7.71888
-1.99657
9.14337
-2.40564
10.8677
-2.7051
12.9858
-2.78391
15.5762
-2.56491
18.6316
-1.99555
21.855
-1.26003
20.7606
-0.717925
16.1725
-0.45501
12.6509
-0.353764
10.0597
-0.321368
8.09244
-0.30782
6.57581
-0.309654
5.38514
-0.274014
4.32832
-0.153677
3.04501
0.90309
-0.151794
3.8505
-0.352325
5.68769
-0.667049
6.89181
-1.03083
8.08266
-1.39226
9.50481
-1.7117
11.1871
-1.94847
13.2225
-2.0142
15.6419
-1.83257
18.45
-1.37148
21.3939
-0.83013
20.2193
-0.452196
15.7946
-0.252663
12.4513
-0.149972
9.95702
-0.100863
8.04334
-0.0635786
6.53852
-0.0044079
5.32597
0.0181189
4.30579
0.0427953
3.02033
0.945886
-0.125578
3.97608
-0.268542
5.83065
-0.458898
7.08216
-0.706518
8.33028
-0.969973
9.76826
-1.22298
11.4401
-1.41374
13.4133
-1.47369
15.7019
-1.34534
18.3216
-0.995124
21.0437
-0.609832
19.834
-0.348445
15.5332
-0.199944
12.3028
-0.105647
9.86272
-0.0423132
7.98
-0.00579452
6.502
0.0245776
5.2956
0.0718192
4.25855
0.0740014
3.01815
1.01989
-0.0728941
4.04897
-0.177462
5.93522
-0.332192
7.23689
-0.514923
8.51301
-0.703701
9.95704
-0.89603
11.6324
-1.04334
13.5606
-1.1007
15.7592
-1.01746
18.2384
-0.762795
20.7891
-0.490317
19.5615
-0.302672
15.3455
-0.181856
12.182
-0.097363
9.77823
-0.0321332
7.91477
0.0166277
6.45324
0.0415148
5.27071
0.0714877
4.22858
0.0794799
3.01015
1.09937
-0.000441803
4.04941
-0.173843
6.10862
-0.298748
7.3618
-0.407941
8.6222
-0.530947
10.08
-0.674857
11.7764
-0.79203
13.6778
-0.848073
15.8153
-0.799062
18.1894
-0.620838
20.6108
-0.427247
19.3679
-0.29183
15.2101
-0.203106
12.0933
-0.141973
9.7171
-0.0951112
7.86791
-0.0434275
6.40156
0.0298834
5.1974
0.0788712
4.17959
0.076827
3.0122
1.17619
-0.0134934
4.06291
-0.135244
6.23037
-0.246745
7.4733
-0.332017
8.70747
-0.429498
10.1775
-0.530655
11.8775
-0.624475
13.7716
-0.677331
15.8681
-0.654083
18.1661
-0.535047
20.4918
-0.398776
19.2317
-0.297977
15.1093
-0.219623
12.0149
-0.142505
9.63998
-0.05435
7.77976
0.029072
6.31814
0.0638854
5.16259
0.0797818
4.16369
0.0661093
3.02587
1.2423
-0.0210435
4.08395
-0.0989305
6.30826
-0.178065
7.55243
-0.262166
8.79157
-0.355513
10.2709
-0.440494
11.9625
-0.514878
13.846
-0.562054
15.9153
-0.558279
18.1623
-0.482857
20.4164
-0.382158
19.131
-0.292405
15.0196
-0.210257
11.9328
-0.14628
9.576
-0.120906
7.75438
-0.106631
6.30386
-0.0531984
5.10916
-0.00231869
4.11281
0.0199257
3.00363
1.26223
0.0161058
4.06784
-0.0496631
6.37403
-0.121907
7.62468
-0.21049
8.88016
-0.301437
10.3618
-0.379861
12.0409
-0.441689
13.9078
-0.48536
15.959
-0.495029
18.172
-0.448998
20.3704
-0.371628
19.0536
-0.2952
14.9431
-0.227378
11.865
-0.159338
9.50796
-0.0697742
7.66482
0.00783413
6.22625
0.0289716
5.08802
0.0248317
4.11695
-0.00739927
3.03586
1.25483
0.0101875
4.05766
-0.0298564
6.41407
-0.0903996
7.68522
-0.176311
8.96607
-0.260532
10.446
-0.333477
12.1139
-0.390218
13.9646
-0.434124
16.0029
-0.45185
18.1897
-0.427309
20.3458
-0.370258
18.9965
-0.301744
14.8746
-0.230279
11.7935
-0.170007
9.44769
-0.146608
7.64142
-0.134722
6.21437
-0.0989601
5.05226
-0.0493307
4.06732
-0.0100477
2.99657
1.24478
0.0304277
4.02723
-0.0075998
6.4521
-0.0678373
7.74546
-0.149783
9.04801
-0.226693
10.5229
-0.294095
12.1813
-0.349927
14.0204
-0.395929
16.0489
-0.419674
18.2135
-0.413133
20.3393
-0.373701
18.9571
-0.317123
14.818
-0.260022
11.7364
-0.208043
9.39571
-0.133831
7.56721
-0.0608717
6.14141
-0.0215482
5.01293
-0.00678876
4.05256
-0.0166817
3.00647
1.2281
0.0207178
4.00651
-0.0071075
6.47992
-0.0597009
7.79805
-0.12788
9.11619
-0.196143
10.5912
-0.259683
12.2448
-0.316339
14.0771
-0.365341
16.0979
-0.395276
18.2434
-0.406856
20.3508
-0.389632
18.9399
-0.347019
14.7754
-0.288303
11.6777
-0.225124
9.33253
-0.187907
7.52999
-0.160244
6.11374
-0.119319
4.97201
-0.0638863
3.99713
-0.0211103
2.96369
1.20699
0.0182957
3.98822
-0.0235727
6.52179
-0.0643009
7.83878
-0.113397
9.16529
-0.170063
10.6479
-0.229143
12.3039
-0.286785
14.1347
-0.338208
16.1493
-0.375768
18.281
-0.404516
20.3796
-0.405477
18.9408
-0.373202
14.7431
-0.324925
11.6294
-0.268992
9.2766
-0.196519
7.45752
-0.121744
6.03897
-0.0759004
4.92616
-0.059216
3.98045
-0.0386061
2.94308
1.16838
0.0158221
3.97239
-0.0146466
6.55226
-0.0580743
7.88221
-0.101225
9.20844
-0.148773
10.6954
-0.203209
12.3583
-0.260521
14.192
-0.314387
16.2032
-0.360003
18.3266
-0.403016
20.4226
-0.423125
18.961
-0.410584
14.7306
-0.368468
11.5873
-0.301468
9.2096
-0.243169
7.39922
-0.197511
5.99331
-0.141857
4.87051
-0.0736113
3.9122
-0.0350812
2.90455
1.1333
0.00888117
3.96351
-0.024266
6.58541
-0.0547141
7.91265
-0.0909835
9.24471
-0.13361
10.7381
-0.182814
12.4075
-0.237801
14.247
-0.292622
16.258
-0.345107
18.3791
-0.399997
20.4775
-0.433698
18.9947
-0.432149
14.7291
-0.399913
11.5551
-0.355321
9.16501
-0.2853
7.3292
-0.205417
5.91343
-0.151922
4.81702
-0.119551
3.87983
-0.0629924
2.84799
1.07031
0.00605649
3.95746
-0.0254228
6.61689
-0.0534114
7.94064
-0.0867208
9.27802
-0.122742
10.7741
-0.167766
12.4525
-0.219271
14.2985
-0.2739
16.3126
-0.33129
18.4365
-0.395026
20.5412
-0.441506
19.0411
-0.463678
14.7512
-0.449516
11.5409
-0.400805
9.1163
-0.336458
7.26485
-0.272766
5.84974
-0.201264
4.74551
-0.117763
3.79633
-0.0623822
2.79261
1.00793
0.00527009
3.95219
-0.0147353
6.63689
-0.0360752
7.96198
-0.0765029
9.31845
-0.113234
10.8108
-0.155822
12.4951
-0.203642
14.3463
-0.257283
16.3663
-0.31727
18.4965
-0.38816
20.6121
-0.445174
19.0981
-0.477707
14.7838
-0.476459
11.5397
-0.450405
9.09024
-0.402555
7.217
-0.33027
5.77745
-0.255864
4.67111
-0.188625
3.72909
-0.092945
2.69693
0.914983
0.0110072
3.94118
-0.0162421
6.66414
-0.0387297
7.98447
-0.0697881
9.3495
-0.104035
10.8451
-0.145132
12.5362
-0.190031
14.3912
-0.242709
16.419
-0.304136
18.5579
-0.380303
20.6883
-0.447099
19.1649
-0.493637
14.8303
-0.520586
11.5666
-0.503787
9.07345
-0.450834
7.16405
-0.386001
5.71262
-0.304478
4.58958
-0.188639
3.61325
-0.0950852
2.60338
0.819898
0.00461814
3.93656
-0.0130741
6.68183
-0.0294473
8.00084
-0.0646096
9.38467
-0.0976695
10.8781
-0.135186
12.5737
-0.177296
14.4333
-0.228938
16.4706
-0.290788
18.6197
-0.370653
20.7682
-0.446085
19.2404
-0.501494
14.8857
-0.532556
11.5977
-0.547348
9.08824
-0.534869
7.15157
-0.485337
5.66309
-0.4014
4.50565
-0.292653
3.5045
-0.140025
2.45075
0.679873
0.00849095
3.92807
-0.00518022
6.69551
-0.0283
8.02396
-0.058821
9.41519
-0.0904671
10.9098
-0.125382
12.6087
-0.165694
14.4736
-0.216108
16.521
-0.277898
18.6815
-0.359965
20.8502
-0.442661
19.3231
-0.511559
14.9546
-0.560583
11.6467
-0.580762
9.10842
-0.57209
7.1429
-0.531768
5.62276
-0.460016
4.4339
-0.324983
3.36947
-0.160267
2.28603
0.519605
0.00291618
3.92515
-0.012374
6.7108
-0.0255111
8.0371
-0.0538349
9.44351
-0.0817749
10.9377
-0.116111
12.643
-0.155417
14.5129
-0.205059
16.5706
-0.266641
18.7431
-0.350117
20.9337
-0.439142
19.4121
-0.517759
15.0332
-0.576647
11.7056
-0.615384
9.14715
-0.642852
7.17036
-0.639252
5.61916
-0.593747
4.38839
-0.478756
3.25448
-0.167599
1.97488
0.352007
0.00507144
3.92008
-0.00683092
6.7227
-0.0283596
8.05863
-0.0507158
9.46587
-0.0785628
10.9655
-0.113264
12.6777
-0.154313
14.554
-0.206973
16.6233
-0.273611
18.8097
-0.366414
21.0265
-0.471105
19.5168
-0.571623
15.1337
-0.660868
11.7948
-0.726368
9.21265
-0.753546
7.19754
-0.749837
5.61546
-0.702975
4.34153
-0.573894
3.1254
-0.354375
1.75536
0.780146
-0.782514
-0.000920108
3.921
-0.00852629
6.7303
-0.025745
8.07585
-0.0491038
9.48923
-0.0770633
10.9935
-0.107055
12.7077
-0.148173
14.5951
-0.201467
16.6766
-0.270113
18.8784
-0.367987
21.1244
-0.483854
19.6327
-0.601301
15.2512
-0.711936
11.9055
-0.810106
9.31082
-0.898638
7.28607
-0.993511
5.71033
-1.0766
4.42461
-0.990236
3.03904
-0.916842
1.68196
1.23483
-1.37152
-0.00121124
3.92221
-0.00715687
6.73625
-0.0254653
8.09416
-0.0463481
9.51011
-0.0718978
11.0191
-0.100676
12.7365
-0.142182
14.6366
-0.19577
16.7302
-0.266406
18.949
-0.369345
21.2273
-0.495822
19.7591
-0.631184
15.3865
-0.771629
12.0459
-0.913372
9.45257
-1.04786
7.42056
-1.14483
5.8073
-1.15727
4.43706
-1.03299
2.91475
-1.28671
1.93568
1.62174
-1.67362
-0.00723625
3.92945
-0.0111858
6.7402
-0.0230509
8.10602
-0.0389747
9.52603
-0.0627666
11.0428
-0.0938616
12.7676
-0.134813
14.6776
-0.188539
16.7839
-0.260854
19.0213
-0.368266
21.3347
-0.504416
19.8953
-0.656565
15.5387
-0.822516
12.2119
-1.00141
9.63146
-1.19533
7.61448
-1.36566
5.97763
-1.36782
4.43922
-1.39454
2.94147
-1.68862
2.22976
1.88101
-1.94789
0.00279904
3.92665
-0.0124673
6.75547
-0.0222271
8.11578
-0.0361883
9.53999
-0.059378
11.066
-0.0882792
12.7965
-0.128031
14.7173
-0.181413
16.8373
-0.254957
19.0949
-0.366414
21.4462
-0.51078
20.0396
-0.677457
15.7054
-0.870389
12.4048
-1.08251
9.84358
-1.28416
7.81613
-1.40035
6.09382
-1.38974
4.42861
-1.5713
3.12303
-1.87088
2.52935
2.09423
-2.0841
0.0103743
3.91628
-0.00303799
6.76888
-0.0235819
8.13632
-0.0399633
9.55638
-0.0605083
11.0866
-0.0860365
12.822
-0.12566
14.7569
-0.178814
16.8905
-0.253853
19.1699
-0.369155
21.5615
-0.520516
20.191
-0.699305
15.8842
-0.909783
12.6153
-1.13039
10.0642
-1.33058
8.01632
-1.51855
6.28179
-1.66684
4.5769
-1.92338
3.37957
-2.18909
2.79506
2.23534
-2.3302
-0.0020442
3.91832
-0.00596451
6.7728
-0.0188958
8.14926
-0.0355393
9.57302
-0.0562365
11.1073
-0.0865507
12.8523
-0.127339
14.7977
-0.180974
16.9441
-0.257867
19.2468
-0.377355
21.681
-0.535092
20.3487
-0.720078
16.0692
-0.937022
12.8322
-1.18031
10.3075
-1.41088
8.24689
-1.53636
6.40727
-1.66168
4.70222
-1.95023
3.66812
-2.19225
3.03707
2.4315
-2.3884
0.0020623
3.91626
-0.00670063
6.78156
-0.0168537
8.15941
-0.0348728
9.59104
-0.054882
11.1273
-0.0876471
12.8851
-0.127962
14.838
-0.182481
16.9986
-0.260735
19.3251
-0.383682
21.8039
-0.547044
20.5121
-0.734192
16.2563
-0.949697
13.0477
-1.19668
10.5545
-1.43528
8.48549
-1.59716
6.56915
-1.86052
4.96558
-2.32517
4.13277
-2.71182
3.42372
2.72889
-3.00921
0.014173
3.90209
-0.000539672
6.79627
-0.0182474
8.17712
-0.0411019
9.61389
-0.0613274
11.1475
-0.0901425
12.9139
-0.129972
14.8779
-0.184574
17.0532
-0.263472
19.404
-0.388862
21.9293
-0.559221
20.6825
-0.748297
16.4454
-0.948299
13.2477
-1.18265
10.7888
-1.456
8.75884
-1.70826
6.82141
-1.96284
5.22016
-2.38955
4.55949
-2.88704
3.9212
2.9387
-3.09685
0.0108318
3.89125
-0.00208811
6.80919
-0.0167841
8.19181
-0.0381647
9.63527
-0.0621923
11.1715
-0.0906435
12.9423
-0.130919
14.9182
-0.185247
17.1075
-0.264026
19.4828
-0.389691
22.055
-0.561285
20.8541
-0.748343
16.6324
-0.952211
13.4516
-1.16479
11.0014
-1.39093
8.98498
-1.63628
7.06676
-2.14455
5.72843
-2.54045
4.95539
-3.05287
4.43363
3.70723
-3.8214
0.00283806
3.88842
-0.00330817
6.81534
-0.0134964
8.202
-0.0331793
9.65496
-0.0589184
11.1973
-0.0903699
12.9738
-0.130643
14.9584
-0.183839
17.1607
-0.259749
19.5587
-0.379085
22.1743
-0.536099
21.0111
-0.706981
16.8033
-0.893941
13.6385
-1.08731
11.1948
-1.25579
9.15346
-1.49528
7.30624
-1.86407
6.09722
-2.05232
5.14365
-1.49894
3.88024
2.2083
0.0151579
3.87326
0.00403358
6.82646
-0.0132744
8.21931
-0.035905
9.67759
-0.0604075
11.2218
-0.0909035
13.0043
-0.131714
14.9992
-0.187439
17.2165
-0.266215
19.6374
-0.388251
22.2963
-0.543642
21.1665
-0.711741
16.9714
-0.89095
13.8177
-1.06162
11.3654
-1.15794
9.24978
-1.23418
7.38248
-1.19521
6.05825
-1.06528
5.01371
-0.737634
3.5526
1.47066
0.014707
3.85855
0.00513941
6.83603
-0.01004
8.23449
-0.0327121
9.70026
-0.0584741
11.2475
-0.0885892
13.0344
-0.130846
15.0415
-0.187784
17.2734
-0.267211
19.7169
-0.389146
22.4183
-0.542218
21.3195
-0.701265
17.1305
-0.855673
13.9722
-0.970283
11.48
-1.0049
9.28439
-1.01149
7.38907
-1.04591
6.09267
-1.02
4.9878
-0.826782
3.35938
0.64388
0.0159869
3.84256
0.00678188
6.84524
-0.00602589
8.24729
-0.0269916
9.72122
-0.0534493
11.274
-0.0827646
13.0637
-0.125862
15.0846
-0.183239
17.3308
-0.261893
19.7955
-0.380755
22.5371
-0.526142
21.4649
-0.665436
17.2698
-0.782031
14.0888
-0.843
11.541
-0.883418
9.32481
-0.911941
7.4176
-0.956229
6.13695
-0.885367
4.91694
-0.405949
2.87996
0.237931
0.0180156
3.82455
0.014132
6.84912
0.000374005
8.26105
-0.0222866
9.74388
-0.0470475
11.2988
-0.0751187
13.0918
-0.119349
15.1288
-0.174445
17.3859
-0.250103
19.8712
-0.361921
22.649
-0.493365
21.5964
-0.603937
17.3803
-0.674642
14.1595
-0.728984
11.5954
-0.77474
9.37057
-0.804253
7.44711
-0.794664
6.12736
-0.604401
4.72668
-0.17943
2.45499
0.0585013
0.0253153
3.79923
0.0186425
6.85579
0.00676963
8.27293
-0.0163502
9.767
-0.0374626
11.3199
-0.0642403
13.1186
-0.109087
15.1737
-0.158017
17.4348
-0.229227
19.9424
-0.330224
22.75
-0.439357
21.7055
-0.517307
17.4583
-0.565433
14.2076
-0.610618
11.6405
-0.620844
9.38079
-0.64043
7.4667
-0.560612
6.04755
-0.390205
4.55627
-0.157955
2.22274
-0.0994542
0.0263362
3.7729
0.0273149
6.85481
0.0171442
8.2831
-0.00520232
9.78935
-0.0190732
11.3337
-0.0496637
13.1492
-0.0922145
15.2162
-0.134762
17.4773
-0.199445
20.0071
-0.285978
22.8365
-0.369812
21.7893
-0.423498
17.512
-0.459014
14.2431
-0.461036
11.6426
-0.440127
9.35989
-0.40879
7.43536
-0.318906
5.95766
-0.177524
4.41489
-0.0281618
2.07338
-0.127616
0.0355441
3.73735
0.03517
6.85519
0.0281778
8.29009
0.00894364
9.80859
0.00299582
11.3397
-0.030966
13.1831
-0.0632675
15.2485
-0.10122
17.5153
-0.157886
20.0637
-0.228036
22.9066
-0.289388
21.8507
-0.324585
17.5472
-0.332459
14.251
-0.287702
11.5978
-0.214096
9.28628
-0.110207
7.33147
-0.0188864
5.86634
0.0834164
4.31258
0.10402
2.05277
-0.0235959
0.0415462
3.69581
0.0520441
6.84469
0.0482869
8.29385
0.0361706
9.8207
0.0234948
11.3524
-0.0083419
13.215
-0.0233602
15.2635
-0.0596504
17.5516
-0.105735
20.1098
-0.159092
22.96
-0.197421
21.889
-0.208754
17.5585
-0.182316
14.2245
-0.112296
11.5278
-0.0124954
9.18648
0.120445
7.19853
0.261012
5.72577
0.322944
4.25065
0.179155
2.19656
0.155559
0.0537511
3.64206
0.0651796
6.83326
0.0684507
8.29058
0.0629644
9.82619
0.0544534
11.3609
0.0388791
13.2305
0.0274255
15.275
-0.00789569
17.5869
-0.0410241
20.143
-0.0771544
22.9961
-0.0947262
21.9066
-0.0820723
17.5458
-0.0269056
14.1694
0.0661262
11.4348
0.168882
9.08372
0.270239
7.09717
0.371973
5.62404
0.4345
4.18813
0.272484
2.35858
0.428043
0.0662359
3.57582
0.0932307
6.80627
0.101934
8.28187
0.10013
9.82799
0.0989743
11.362
0.0960197
13.2335
0.0867608
15.2843
0.06886
17.6048
0.0432766
20.1685
0.0161844
23.0232
0.013934
21.9088
0.0507916
17.509
0.122299
14.0979
0.201801
11.3553
0.266749
9.01878
0.329316
7.03461
0.401061
5.5523
0.435734
4.15345
0.296755
2.49756
0.724797
0.0813435
3.49448
0.115936
6.77168
0.136947
8.26086
0.148019
9.81692
0.158444
11.3516
0.166142
13.2258
0.165166
15.2852
0.16476
17.6052
0.153684
20.1796
0.14015
23.0368
0.149249
21.8997
0.184252
17.474
0.225603
14.0565
0.262046
11.3188
0.287832
8.99299
0.323951
6.99849
0.377256
5.49899
0.391763
4.13895
0.261584
2.62774
0.986382
0.103665
3.39081
0.161943
6.7134
0.192305
8.2305
0.211732
9.79749
0.233611
11.3297
0.252
13.2074
0.26386
15.2734
0.278366
17.5907
0.278966
20.179
0.275356
23.0404
0.282978
21.8921
0.296566
17.4604
0.311443
14.0416
0.331438
11.2988
0.346962
8.97747
0.360792
6.98466
0.378911
5.48087
0.348311
4.16954
0.204034
2.77202
1.19042
0.13031
3.2605
0.202775
6.64093
0.252471
8.1808
0.293568
9.7564
0.330773
11.2925
0.362206
13.176
0.393973
15.2416
0.418252
17.5664
0.429022
20.1682
0.42876
23.0406
0.423287
21.8976
0.423414
17.4603
0.434689
14.0304
0.446024
11.2875
0.432307
8.99118
0.39713
7.01983
0.370277
5.50772
0.306801
4.23302
0.165735
2.91308
1.35615
0.16965
3.09085
0.278527
6.53205
0.344925
8.11441
0.399181
9.70214
0.450291
11.2414
0.499414
13.1268
0.551791
15.1892
0.587064
17.5312
0.60794
20.1474
0.609774
23.0388
0.59985
21.9075
0.597567
17.4625
0.59795
14.03
0.589305
11.2961
0.544867
9.03562
0.470608
7.09409
0.405126
5.57321
0.311324
4.32682
0.156903
3.0675
1.51305
0.216641
2.87421
0.35579
6.39291
0.452621
8.01758
0.538474
9.61629
0.609579
11.1703
0.677905
13.0585
0.747725
15.1194
0.800411
17.4785
0.832605
20.1152
0.840616
23.0308
0.82507
21.9231
0.801331
17.4863
0.772156
14.0592
0.737161
11.3311
0.672725
9.10006
0.562858
7.20396
0.457401
5.67866
0.331167
4.45306
0.159163
3.23951
1.67222
0.296237
2.57797
0.49651
6.19263
0.619957
7.89413
0.723933
9.51231
0.810903
11.0833
0.904362
12.9651
0.996985
15.0268
1.06866
17.4068
1.1138
20.07
1.12379
23.0208
1.08574
21.9611
1.0277
17.5443
0.96545
14.1214
0.901599
11.395
0.829587
9.17207
0.692973
7.34057
0.542356
5.82928
0.370854
4.62456
0.163665
3.4467
1.83588
0.393008
2.18496
0.664394
5.92125
0.830544
7.72798
0.971375
9.37148
1.08565
10.9691
1.20583
12.8449
1.32184
14.9108
1.41564
17.313
1.47571
20.01
1.48059
23.0159
1.4133
22.0284
1.31701
17.6406
1.2083
14.2301
1.08093
11.5223
0.960199
9.2928
0.777171
7.5236
0.577159
6.02929
0.367979
4.83374
0.149238
3.66544
1.98512
0.589132
1.59583
0.945124
5.56525
1.14485
7.52826
1.30687
9.20945
1.44342
10.8325
1.59248
12.6958
1.7407
14.7626
1.85888
17.1948
1.93516
19.9337
1.94455
23.0065
1.86111
22.1118
1.72285
17.7789
1.55696
14.396
1.35966
11.7196
1.16758
9.48488
0.943476
7.7477
0.699576
6.27319
0.450398
5.08292
0.190462
3.92537
2.17558
0.745636
0.850197
1.26846
5.04243
1.53498
7.26173
1.74534
8.99909
1.92702
10.6508
2.11063
12.5122
2.29216
14.581
2.44563
17.0413
2.56017
19.8192
2.59033
22.9764
2.49816
22.204
2.32162
17.9554
2.1063
14.6113
1.84972
11.9762
1.5715
9.7631
1.27099
8.04822
0.940416
6.60377
0.613439
5.40989
0.282997
4.25582
2.45858
0.575185
0.275013
1.14982
4.46779
1.50208
6.90947
1.73153
8.76964
1.8963
10.4861
2.03102
12.3775
2.14448
14.4676
2.22584
16.96
2.2397
19.8053
2.14544
23.0706
1.96268
22.3868
1.74743
18.1707
1.527
14.8318
1.29887
12.2043
1.05569
10.0063
0.848646
8.25526
0.632464
6.81995
0.426656
5.6157
0.205098
4.47737
2.66368
0.023484
0.251529
0.306412
4.18486
0.614275
6.60161
0.877088
8.50683
1.12745
10.2357
1.33244
12.1725
1.51069
14.2893
1.64814
16.8225
1.71277
19.7407
1.6702
23.1132
1.53293
22.524
1.34824
18.3554
1.15521
15.0248
0.965427
12.3941
0.759102
10.2126
0.572676
8.44169
0.40572
6.98691
0.250512
5.77091
0.103263
4.62462
2.76694
-0.301567
0.553095
-0.265889
4.14918
-0.0477694
6.38349
0.241584
8.21748
0.528407
9.94888
0.781104
11.9198
0.997203
14.0732
1.16024
16.6595
1.25927
19.6416
1.26882
23.1036
1.1775
22.6154
1.02913
18.5037
0.866176
15.1877
0.711932
12.5484
0.543959
10.3806
0.400748
8.5849
0.267928
7.11973
0.149058
5.88978
0.048887
4.72479
2.81582
-0.347491
0.900586
-0.346601
4.14829
-0.21497
6.25186
-0.0265892
8.0291
0.180256
9.74204
0.405804
11.6943
0.618436
13.8606
0.78914
16.4888
0.905702
19.5251
0.942633
23.0667
0.888013
22.67
0.777487
18.6142
0.647277
15.318
0.525669
12.67
0.395284
10.511
0.286609
8.69357
0.190428
7.21591
0.107303
5.9729
0.0273737
4.80472
2.8432
-0.303921
1.20451
-0.31963
4.164
-0.243125
6.17535
-0.136321
7.92229
0.0248574
9.58086
0.207439
11.5117
0.378156
13.6899
0.525564
16.3414
0.641143
19.4095
0.693314
23.0145
0.662601
22.7007
0.583539
18.6933
0.484236
15.4173
0.393121
12.7611
0.296636
10.6074
0.210903
8.77931
0.13117
7.29564
0.0589395
6.04513
-0.00758804
4.87125
2.83561
-0.240403
1.44491
-0.290987
4.21459
-0.235771
6.12014
-0.13014
7.81666
-0.00681446
9.45753
0.12037
11.3845
0.241222
13.569
0.353204
16.2294
0.455265
19.3074
0.508946
22.9609
0.493505
22.7161
0.438941
18.7479
0.364273
15.4919
0.294141
12.8312
0.219262
10.6823
0.146412
8.85216
0.0742274
7.36783
0.0065916
6.11277
-0.0372553
4.9151
2.79836
-0.177944
1.62285
-0.252914
4.28956
-0.213697
6.08092
-0.120194
7.72316
-0.0118717
9.34921
0.0786866
11.2939
0.162479
13.4852
0.251358
16.1405
0.333145
19.2256
0.376342
22.9177
0.367959
22.7245
0.330345
18.7855
0.272539
15.5497
0.211147
12.8926
0.148259
10.7452
0.0871844
8.91323
0.026661
7.42835
-0.0250937
6.16453
-0.0536667
4.94367
2.74469
-0.131576
1.75443
-0.197627
4.35561
-0.183936
6.06723
-0.123735
7.66296
-0.0438699
9.26935
0.0319237
11.2181
0.110596
13.4065
0.190527
16.0606
0.251958
19.1642
0.28033
22.8893
0.273776
22.7311
0.244923
18.8143
0.198664
15.596
0.144611
12.9467
0.0889387
10.8009
0.0362788
8.96589
-0.00872392
7.47335
-0.046226
6.20203
-0.0571066
4.95455
2.68758
-0.0981908
1.85262
-0.156526
4.41394
-0.158905
6.06961
-0.128035
7.63209
-0.0867061
9.22802
-0.0155487
11.147
0.0653077
13.3257
0.143953