/*--------------------------------*- C++ -*----------------------------------*\
| =========                 |                                                 |
| \\      /  F ield         | OpenFOAM: The Open Source CFD Toolbox           |
|  \\    /   O peration     | Version:  2412                                  |
|   \\  /    A nd           | Website:  www.openfoam.com                      |
|    \\/     M anipulation  |                                                 |
\*---------------------------------------------------------------------------*/
FoamFile
{
    version     2.0;
    format      ascii;
    arch        "LSB;label=32;scalar=64";
    class       volVectorField;
    location    "4";
    object      U;
}
// * * * * * * * * * * * * * * * * * * * * * * * * * * * * * * * * * * * * * //

dimensions      [0 1 -1 0 0 0 0];

internalField   nonuniform List<vector> 
2200
(
(0.370473 7.48326e-05 0)
(1.19147 -0.00188965 0)
(2.12153 0.00019584 0)
(3.16827 0.00070841 0)
(4.32519 0.00146559 0)
(5.57137 0.00206719 0)
(6.86505 0.00249544 0)
(8.12229 0.00272533 0)
(9.20737 0.00320517 0)
(9.90101 0.00267897 0)
(9.901 0.0019008 0)
(9.20704 0.00126765 0)
(8.1211 0.000971923 0)
(6.86411 0.000448612 0)
(5.57175 0.00039747 0)
(4.32508 0.000475387 0)
(3.16794 0.000381276 0)
(2.1214 0.000771323 0)
(1.19092 0.00274421 0)
(0.369334 7.64192e-05 0)
(0.373109 0.00468615 0)
(1.18327 0.000139262 0)
(2.12116 0.00271263 0)
(3.16911 0.00319484 0)
(4.32611 0.00513192 0)
(5.57211 0.00832459 0)
(6.86191 0.00889169 0)
(8.11894 0.0091896 0)
(9.20559 0.00883342 0)
(9.89929 0.00796156 0)
(9.89916 0.00629206 0)
(9.20438 0.00396426 0)
(8.11886 0.00156547 0)
(6.86174 0.000775975 0)
(5.57051 -0.000496638 0)
(4.32406 -0.000308287 0)
(3.16737 -1.14776e-05 0)
(2.11762 -0.000646867 0)
(1.17978 0.00132798 0)
(0.370036 -0.00466825 0)
(0.388328 0.00814708 0)
(1.18286 0.00744197 0)
(2.12409 0.00877167 0)
(3.17181 0.00964056 0)
(4.32545 0.0137608 0)
(5.57348 0.0139275 0)
(6.86362 0.0161424 0)
(8.11829 0.0165794 0)
(9.20268 0.0165652 0)
(9.89415 0.0134625 0)
(9.89468 0.00861628 0)
(9.20073 0.00365529 0)
(8.11553 0.000891065 0)
(6.85962 -0.00158932 0)
(5.56806 -0.0026978 0)
(4.32133 -0.00386588 0)
(3.16579 -0.00299486 0)
(2.11706 -0.00449766 0)
(1.17401 -0.00520013 0)
(0.381566 -0.00778709 0)
(0.431111 0.00968149 0)
(1.19244 0.0184683 0)
(2.13817 0.0183585 0)
(3.17718 0.0241912 0)
(4.33085 0.0236192 0)
(5.57138 0.0256919 0)
(6.86143 0.0241815 0)
(8.11514 0.0242291 0)
(9.19967 0.0219233 0)
(9.88904 0.0179058 0)
(9.88874 0.0119198 0)
(9.19425 0.00570683 0)
(8.10868 -0.000568736 0)
(6.85314 -0.00457296 0)
(5.5616 -0.00922119 0)
(4.32061 -0.010131 0)
(3.16515 -0.0135122 0)
(2.12406 -0.0108148 0)
(1.177 -0.0153505 0)
(0.419378 -0.00807359 0)
(0.492171 0.00682437 0)
(1.21619 0.0305184 0)
(2.15678 0.0265231 0)
(3.19238 0.0405058 0)
(4.34797 0.0370992 0)
(5.58233 0.0407445 0)
(6.86499 0.0363358 0)
(8.11303 0.0344902 0)
(9.19555 0.0302013 0)
(9.88112 0.0233115 0)
(9.88075 0.0135608 0)
(9.18672 0.00438592 0)
(8.10246 -0.00453196 0)
(6.85052 -0.0102856 0)
(5.56407 -0.01832 0)
(4.32438 -0.0203282 0)
(3.16693 -0.0265216 0)
(2.12829 -0.0190371 0)
(1.19146 -0.0264539 0)
(0.467933 -0.00573094 0)
(0.560573 0.00281328 0)
(1.27314 0.0375018 0)
(2.16149 0.0349984 0)
(3.20793 0.043772 0)
(4.35939 0.0539554 0)
(5.59513 0.0529682 0)
(6.87197 0.0528243 0)
(8.11572 0.0468563 0)
(9.19418 0.0404973 0)
(9.8732 0.0295821 0)
(9.87228 0.0153054 0)
(9.17917 0.000880223 0)
(8.09738 -0.00999823 0)
(6.84686 -0.0219772 0)
(5.56663 -0.027898 0)
(4.32516 -0.0338529 0)
(3.17363 -0.0291993 0)
(2.12266 -0.0271484 0)
(1.23609 -0.034066 0)
(0.532115 -0.00186869 0)
(0.626275 0.00286306 0)
(1.35716 0.0383909 0)
(2.15531 0.0462142 0)
(3.22812 0.0394163 0)
(4.36599 0.0601389 0)
(5.60387 0.0604518 0)
(6.87859 0.0639498 0)
(8.11994 0.0591445 0)
(9.19331 0.0494692 0)
(9.86469 0.0351887 0)
(9.86214 0.0171264 0)
(9.171 -0.000566807 0)
(8.09368 -0.0167136 0)
(6.84518 -0.0267118 0)
(5.56232 -0.0303038 0)
(4.32177 -0.0351373 0)
(3.17694 -0.0252468 0)
(2.10175 -0.0364311 0)
(1.3077 -0.0335466 0)
(0.585969 -0.00139142 0)
(0.693542 0.00706501 0)
(1.44027 0.0361154 0)
(2.15161 0.0584527 0)
(3.24531 0.0383745 0)
(4.37742 0.0580163 0)
(5.61705 0.0681466 0)
(6.88962 0.0748646 0)
(8.12562 0.0739716 0)
(9.19526 0.0660929 0)
(9.85551 0.0462189 0)
(9.85289 0.016536 0)
(9.16412 -0.0089895 0)
(8.08824 -0.023687 0)
(6.84262 -0.0337874 0)
(5.56168 -0.0353047 0)
(4.32147 -0.0351081 0)
(3.17577 -0.0241764 0)
(2.08184 -0.0468127 0)
(1.3782 -0.0307135 0)
(0.641033 -0.00541376 0)
(0.77193 0.0115052 0)
(1.53082 0.0367766 0)
(2.16045 0.0727973 0)
(3.25595 0.0490571 0)
(4.40224 0.0633433 0)
(5.62436 0.078936 0)
(6.8934 0.087885 0)
(8.12208 0.0865687 0)
(9.19054 0.0800366 0)
(9.84265 0.0552227 0)
(9.83876 0.0169293 0)
(9.14996 -0.014645 0)
(8.0744 -0.0295918 0)
(6.8321 -0.0404021 0)
(5.55489 -0.043201 0)
(4.32569 -0.0410584 0)
(3.17042 -0.0303468 0)
(2.07714 -0.0625526 0)
(1.45574 -0.0303561 0)
(0.706832 -0.0101876 0)
(0.866949 0.0165398 0)
(1.63848 0.0435231 0)
(2.19514 0.0949017 0)
(3.26562 0.0860027 0)
(4.44487 0.0957842 0)
(5.6278 0.101941 0)
(6.88639 0.10079 0)
(8.10481 0.102043 0)
(9.17229 0.092557 0)
(9.81336 0.0642637 0)
(9.80877 0.0210349 0)
(9.12047 -0.0150375 0)
(8.0436 -0.0364667 0)
(6.81056 -0.0465547 0)
(5.54127 -0.0611067 0)
(4.34788 -0.0649189 0)
(3.16341 -0.0653561 0)
(2.09536 -0.0826577 0)
(1.54833 -0.0368055 0)
(0.787938 -0.0147947 0)
(0.992586 0.0213932 0)
(1.77886 0.0543439 0)
(2.28255 0.122306 0)
(3.28255 0.135715 0)
(4.47728 0.140249 0)
(5.63641 0.139965 0)
(6.87096 0.126708 0)
(8.0775 0.123174 0)
(9.13834 0.107628 0)
(9.76805 0.0745125 0)
(9.76268 0.0219998 0)
(9.07615 -0.019587 0)
(8.00367 -0.048429 0)
(6.77677 -0.0665493 0)
(5.5271 -0.0930514 0)
(4.35295 -0.103954 0)
(3.14898 -0.111352 0)
(2.16 -0.108915 0)
(1.66674 -0.0467933 0)
(0.894132 -0.0193523 0)
(1.13909 0.0255286 0)
(1.94002 0.0608375 0)
(2.40386 0.144598 0)
(3.30716 0.166111 0)
(4.48469 0.178606 0)
(5.65222 0.180708 0)
(6.86056 0.17117 0)
(8.04736 0.152164 0)
(9.09206 0.126741 0)
(9.70309 0.0866505 0)
(9.69567 0.0270596 0)
(9.01354 -0.0240448 0)
(7.95295 -0.0642219 0)
(6.74302 -0.102064 0)
(5.52029 -0.126796 0)
(4.33682 -0.13976 0)
(3.15338 -0.145405 0)
(2.26324 -0.129342 0)
(1.81588 -0.0540046 0)
(1.02927 -0.022526 0)
(1.32353 0.0274138 0)
(2.14182 0.069653 0)
(2.55274 0.160645 0)
(3.36867 0.201203 0)
(4.49996 0.215511 0)
(5.68174 0.223743 0)
(6.86228 0.228661 0)
(8.02264 0.196411 0)
(9.04428 0.15887 0)
(9.61776 0.103032 0)
(9.60662 0.0283726 0)
(8.95052 -0.0410392 0)
(7.90839 -0.0962746 0)
(6.71924 -0.148234 0)
(5.51705 -0.159208 0)
(4.31387 -0.171143 0)
(3.18177 -0.171774 0)
(2.38956 -0.142536 0)
(1.98441 -0.058474 0)
(1.17985 -0.0232794 0)
(1.50345 0.0301467 0)
(2.34544 0.0733578 0)
(2.72981 0.179197 0)
(3.45552 0.233127 0)
(4.52781 0.263102 0)
(5.7147 0.265152 0)
(6.87021 0.285928 0)
(8.01424 0.257363 0)
(9.02077 0.209931 0)
(9.55882 0.131805 0)
(9.54617 0.0210466 0)
(8.90962 -0.0722665 0)
(7.86524 -0.138479 0)
(6.69539 -0.189645 0)
(5.51604 -0.19193 0)
(4.30783 -0.216197 0)
(3.2434 -0.202347 0)
(2.54288 -0.15813 0)
(2.17971 -0.0640492 0)
(1.34718 -0.0247648 0)
(1.74038 0.0300144 0)
(2.6141 0.0865085 0)
(2.94567 0.198335 0)
(3.58182 0.266994 0)
(4.57382 0.314715 0)
(5.74353 0.311231 0)
(6.86972 0.319452 0)
(7.99701 0.301143 0)
(8.99844 0.253092 0)
(9.51447 0.164866 0)
(9.49693 0.0162428 0)
(8.86515 -0.0890385 0)
(7.81443 -0.161321 0)
(6.65969 -0.20678 0)
(5.5022 -0.225481 0)
(4.31269 -0.258337 0)
(3.33236 -0.226152 0)
(2.72298 -0.170072 0)
(2.39663 -0.0685502 0)
(1.52524 -0.0253361 0)
(1.94236 0.0312702 0)
(2.86603 0.084335 0)
(3.17803 0.208803 0)
(3.73039 0.288847 0)
(4.6353 0.361922 0)
(5.76312 0.35502 0)
(6.85918 0.347514 0)
(7.96041 0.325545 0)
(8.93842 0.27494 0)
(9.43248 0.188956 0)
(9.41016 0.0253883 0)
(8.78083 -0.0787774 0)
(7.73351 -0.156249 0)
(6.60043 -0.213735 0)
(5.4672 -0.261821 0)
(4.32465 -0.294591 0)
(3.44496 -0.246736 0)
(2.92763 -0.183502 0)
(2.63792 -0.0726125 0)
(1.71547 -0.0235072 0)
(2.21757 0.0325548 0)
(3.18733 0.101193 0)
(3.45436 0.229 0)
(3.91635 0.317039 0)
(4.71553 0.398872 0)
(5.77223 0.414501 0)
(6.84456 0.397938 0)
(7.91062 0.366627 0)
(8.82827 0.312094 0)
(9.27589 0.216599 0)
(9.24708 0.0399486 0)
(8.63913 -0.0791664 0)
(7.63588 -0.169267 0)
(6.52747 -0.245364 0)
(5.4193 -0.306423 0)
(4.35455 -0.327329 0)
(3.58413 -0.260184 0)
(3.15613 -0.184676 0)
(2.88981 -0.0725293 0)
(1.8961 -0.0196928 0)
(2.44546 0.0304885 0)
(3.48732 0.0947479 0)
(3.74249 0.237661 0)
(4.13285 0.342166 0)
(4.83241 0.452979 0)
(5.80044 0.486608 0)
(6.842 0.477023 0)
(7.88106 0.447022 0)
(8.72114 0.386035 0)
(9.11312 0.259176 0)
(9.07309 0.0500793 0)
(8.50144 -0.105941 0)
(7.54187 -0.205968 0)
(6.44877 -0.298083 0)
(5.37164 -0.354746 0)
(4.41211 -0.354431 0)
(3.75508 -0.278841 0)
(3.40791 -0.195377 0)
(3.16656 -0.0757269 0)
(2.08434 -0.0154213 0)
(2.74072 0.0350385 0)
(3.85928 0.116132 0)
(4.07905 0.259862 0)
(4.3913 0.375405 0)
(4.98608 0.495047 0)
(5.85347 0.555444 0)
(6.84875 0.570504 0)
(7.85972 0.53488 0)
(8.63568 0.459619 0)
(8.98362 0.309934 0)
(8.92844 0.0636114 0)
(8.37978 -0.121027 0)
(7.44097 -0.242048 0)
(6.36861 -0.347233 0)
(5.34702 -0.400057 0)
(4.50253 -0.381713 0)
(3.95574 -0.285441 0)
(3.68345 -0.19035 0)
(3.45468 -0.0693287 0)
(2.2463 -0.00822412 0)
(3.01725 0.0288865 0)
(4.22115 0.107531 0)
(4.44097 0.266633 0)
(4.68923 0.399756 0)
(5.18963 0.540216 0)
(5.93983 0.631049 0)
(6.86587 0.654773 0)
(7.81759 0.614851 0)
(8.53069 0.517561 0)
(8.83906 0.366224 0)
(8.76605 0.0880299 0)
(8.23186 -0.101209 0)
(7.30953 -0.265739 0)
(6.27989 -0.381378 0)
(5.34261 -0.424134 0)
(4.62455 -0.383913 0)
(4.18157 -0.286855 0)
(3.97677 -0.181949 0)
(3.75644 -0.061468 0)
(2.3824 0.00106513 0)
(3.29967 0.0344601 0)
(4.63962 0.12389 0)
(4.83522 0.280831 0)
(5.02249 0.421689 0)
(5.42453 0.581254 0)
(6.06082 0.688017 0)
(6.8858 0.738763 0)
(7.75243 0.696782 0)
(8.3926 0.57392 0)
(8.65652 0.432215 0)
(8.56235 0.12389 0)
(8.03564 -0.0649427 0)
(7.14427 -0.280398 0)
(6.18595 -0.402457 0)
(5.35568 -0.430112 0)
(4.77192 -0.374325 0)
(4.42619 -0.263349 0)
(4.27621 -0.158976 0)
(4.03923 -0.042769 0)
(2.46282 0.0109715 0)
(3.63957 0.0333279 0)
(5.04573 0.122996 0)
(5.25351 0.288762 0)
(5.38692 0.444882 0)
(5.70588 0.612626 0)
(6.21359 0.751357 0)
(6.91302 0.830953 0)
(7.6804 0.788481 0)
(8.23698 0.652511 0)
(8.45589 0.510316 0)
(8.33139 0.175706 0)
(7.80161 -0.030664 0)
(6.95699 -0.281488 0)
(6.0999 -0.408008 0)
(5.39552 -0.409729 0)
(4.94253 -0.343989 0)
(4.67839 -0.243143 0)
(4.56168 -0.139169 0)
(4.32326 -0.0347612 0)
(2.49635 0.0206826 0)
(3.92079 0.0404455 0)
(5.50397 0.138894 0)
(5.68949 0.302783 0)
(5.77992 0.46484 0)
(6.01722 0.649955 0)
(6.40618 0.807643 0)
(6.9646 0.911565 0)
(7.60943 0.885511 0)
(8.08193 0.756827 0)
(8.26101 0.591938 0)
(8.09886 0.246226 0)
(7.56156 0.00820754 0)
(6.77097 -0.249728 0)
(6.03215 -0.370257 0)
(5.46502 -0.352502 0)
(5.11343 -0.28298 0)
(4.91285 -0.190756 0)
(4.82587 -0.103048 0)
(4.57792 -0.0138424 0)
(2.49258 0.0225427 0)
(4.36287 0.04648 0)
(5.94475 0.154761 0)
(6.14335 0.317992 0)
(6.19188 0.495514 0)
(6.35336 0.692495 0)
(6.63098 0.863132 0)
(7.0408 0.992782 0)
(7.55842 0.994868 0)
(7.93579 0.876705 0)
(8.05892 0.684244 0)
(7.84875 0.337657 0)
(7.30849 0.0686612 0)
(6.58945 -0.17007 0)
(5.98105 -0.268234 0)
(5.53967 -0.247299 0)
(5.26971 -0.190565 0)
(5.11817 -0.106803 0)
(5.03707 -0.0379309 0)
(4.73021 0.0223379 0)
(2.45362 0.0233608 0)
(4.69318 0.0719617 0)
(6.43534 0.18684 0)
(6.59443 0.371383 0)
(6.60289 0.560625 0)
(6.69307 0.76289 0)
(6.85898 0.948229 0)
(7.13475 1.09304 0)
(7.51595 1.1167 0)
(7.78547 1.00241 0)
(7.84184 0.794967 0)
(7.59064 0.453207 0)
(7.0665 0.167085 0)
(6.43679 -0.0440528 0)
(5.95068 -0.123814 0)
(5.61205 -0.108719 0)
(5.40138 -0.0653236 0)
(5.2825 -0.00716362 0)
(5.20924 0.0326654 0)
(4.7515 0.080506 0)
(2.34274 0.041244 0)
(5.49588 0.129687 0)
(6.93029 0.286753 0)
(7.07116 0.474483 0)
(7.01481 0.693515 0)
(7.02878 0.902466 2.39153e-33)
(7.10241 1.08745 -1.61654e-33)
(7.25864 1.22317 0)
(7.47685 1.24794 0)
(7.64246 1.14034 0)
(7.62083 0.923116 0)
(7.33031 0.591156 0)
(6.83033 0.303449 0)
(6.29633 0.122973 0)
(5.91342 0.0535656 0)
(5.65042 0.0555097 0)
(5.48701 0.0743859 0)
(5.38941 0.112502 0)
(5.28603 0.129862 0)
(4.64398 0.117418 0)
(1.96149 0.0624342 0)
(6.12796 0.300189 -2.8551e-19)
(7.43667 0.415825 2.40412e-19)
(7.48082 0.70321 0)
(7.3703 0.930867 2.85881e-20)
(7.31797 1.11212 -2.30418e-20)
(7.31788 1.2769 1.68262e-33)
(7.36704 1.38326 0)
(7.43648 1.40714 1.6978e-19)
(7.48847 1.31145 -6.43354e-19)
(7.38351 1.08789 1.4324e-19)
(7.05391 0.781943 0)
(6.59688 0.517508 -4.9971e-19)
(6.17168 0.366197 -6.1782e-19)
(5.88124 0.298813 1.08157e-18)
(5.6828 0.277758 -8.68435e-19)
(5.54795 0.27053 0)
(5.44471 0.247167 -3.32716e-19)
(5.24952 0.231906 0)
(4.45469 0.202044 -1.65454e-18)
(1.64562 0.0846363 2.08477e-18)
(6.5014 0.609951 -7.62446e-20)
(7.8254 0.774939 -1.85558e-18)
(7.83081 1.04029 4.82215e-19)
(7.66727 1.21102 6.15258e-19)
(7.55861 1.3555 -3.20975e-20)
(7.47695 1.49603 8.12696e-20)
(7.42702 1.5906 0)
(7.3898 1.60716 0)
(7.33249 1.52281 1.04258e-18)
(7.15214 1.3096 0)
(6.79954 1.03575 1.74798e-18)
(6.38785 0.804833 5.44444e-19)
(6.039 0.668975 7.82963e-21)
(5.79123 0.59285 -1.24914e-18)
(5.61006 0.550255 0)
(5.48583 0.520818 0)
(5.39072 0.515648 -5.75286e-18)
(5.20955 0.456498 1.44884e-17)
(4.35845 0.380023 -7.98849e-18)
(1.56998 0.141876 -1.01665e-17)
(6.72807 0.960497 2.492e-18)
(8.14586 1.31724 -8.9105e-19)
(8.10481 1.45715 -2.22103e-19)
(7.90528 1.55718 -1.16992e-18)
(7.7468 1.64874 4.97924e-19)
(7.58918 1.76047 -6.52859e-20)
(7.46164 1.82727 1.71891e-19)
(7.33498 1.83011 0)
(7.19401 1.75087 -2.21344e-18)
(6.95033 1.55426 2.53146e-18)
(6.59081 1.30301 -4.78225e-18)
(6.21426 1.10176 2.3362e-18)
(5.9165 0.975693 -1.71074e-18)
(5.7037 0.898637 3.74962e-18)
(5.54913 0.844683 0)
(5.41933 0.80149 -1.46714e-18)
(5.28704 0.768465 0)
(5.07872 0.750038 8.45724e-18)
(4.29251 0.555051 -1.95205e-17)
(1.63742 0.278842 1.26523e-17)
(6.8347 1.30764 -1.10643e-17)
(8.32212 1.79239 6.11279e-18)
(8.2976 1.89292 8.95185e-19)
(8.08281 1.93642 0)
(7.8765 1.99466 6.19555e-19)
(7.67518 2.06056 -6.5859e-19)
(7.482 2.09442 -2.12022e-19)
(7.28213 2.0777 0)
(7.07193 1.99277 1.57415e-18)
(6.77278 1.80862 -1.73621e-18)
(6.41082 1.57074 4.21954e-18)
(6.05167 1.38772 0)
(5.76957 1.26005 -3.61407e-18)
(5.5478 1.1721 1.98998e-18)
(5.36623 1.10453 5.39254e-18)
(5.23665 1.06146 -4.74754e-18)
(5.13827 1.00317 7.89673e-18)
(4.98186 1.00836 -1.76036e-17)
(4.26552 0.774303 1.1199e-17)
(1.77268 0.38976 -1.41636e-17)
(6.87162 1.4859 7.70056e-18)
(8.43244 2.33503 -6.97609e-18)
(8.42042 2.32374 2.77887e-18)
(8.18723 2.32793 -3.78997e-18)
(7.95606 2.34942 2.50635e-18)
(7.71921 2.37714 -3.85811e-19)
(7.47435 2.38208 1.16365e-19)
(7.2229 2.34062 -1.10139e-18)
(6.95903 2.24396 -1.63201e-18)
(6.6151 2.06484 -3.78537e-18)
(6.25201 1.83419 -9.10922e-18)
(5.90609 1.66055 -3.05976e-18)
(5.64496 1.53214 1.06183e-19)
(5.45484 1.44851 -7.18264e-18)
(5.31644 1.38638 -2.49439e-19)
(5.18759 1.35258 6.99075e-18)
(5.06341 1.25293 -2.17736e-18)
(4.84363 1.22491 -1.27716e-18)
(4.176 0.963938 0)
(1.88943 0.504331 3.03989e-17)
(6.79067 1.79516 0)
(8.44995 2.7654 1.94795e-18)
(8.47654 2.7245 0)
(8.23963 2.71886 -4.5779e-19)
(7.99415 2.71203 -3.06594e-18)
(7.72647 2.70647 5.97552e-19)
(7.44649 2.67929 1.18395e-19)
(7.15937 2.61143 1.98238e-18)
(6.8535 2.49937 -1.00551e-18)
(6.47445 2.31734 1.65293e-18)
(6.10657 2.08952 4.91615e-18)
(5.76302 1.91734 6.77646e-18)
(5.49741 1.77983 -4.22747e-18)
(5.28539 1.67738 7.79806e-18)
(5.11716 1.58641 -6.25492e-18)
(5.00394 1.52346 0)
(4.91943 1.43261 -1.67181e-17)
(4.77729 1.43768 2.24427e-17)
(4.19684 1.17163 1.71425e-18)
(2.00055 0.627967 -3.22252e-17)
(6.76809 2.10193 -7.68698e-19)
(8.45473 3.19021 -5.66283e-18)
(8.5052 3.08439 -1.53655e-17)
(8.24974 3.08723 8.42948e-18)
(7.98553 3.0673 -1.75178e-18)
(7.6965 3.03543 9.26613e-19)
(7.39862 2.97544 -1.57573e-19)
(7.08611 2.88247 -2.21748e-19)
(6.75121 2.75302 -3.55646e-18)
(6.3463 2.56352 1.7664e-20)
(5.97303 2.33461 -5.35103e-18)
(5.63862 2.1575 -7.19106e-18)
(5.39546 2.01357 4.74381e-18)
(5.22535 1.90658 -2.80384e-18)
(5.10568 1.82525 6.78972e-18)
(4.97578 1.80698 0)
(4.87426 1.7032 -1.03303e-17)
(4.67455 1.67196 1.52821e-17)
(4.09542 1.3698 2.9736e-17)
(2.04293 0.733444 -3.48898e-17)
(6.63783 2.3289 -2.69938e-17)
(8.40209 3.52501 1.32086e-17)
(8.48713 3.41044 9.82554e-18)
(8.21251 3.44022 -9.04434e-18)
(7.9363 3.40698 4.93774e-19)
(7.64404 3.35058 2.3543e-18)
(7.33672 3.2638 -2.03102e-19)
(7.00749 3.15003 -8.15241e-19)
(6.65286 3.0024 -2.2451e-18)
(6.22714 2.80195 3.79082e-18)
(5.8498 2.56783 5.07902e-18)
(5.52151 2.38081 1.12795e-17)
(5.27573 2.22649 0)
(5.07411 2.10212 2.04767e-19)
(4.91248 1.99434 -1.8794e-17)
(4.80195 1.91236 4.29307e-18)
(4.71611 1.81871 2.21192e-17)
(4.56945 1.80229 -6.40355e-18)
(4.07454 1.55129 1.42629e-17)
(2.0108 0.839273 -1.0518e-18)
(6.55898 2.60145 9.1154e-19)
(8.36091 3.8782 1.2152e-17)
(8.44006 3.72899 7.24034e-18)
(8.13612 3.77289 -1.55159e-17)
(7.85943 3.71825 9.61181e-18)
(7.5695 3.64154 -2.81304e-18)
(7.25718 3.53734 1.27676e-19)
(6.91875 3.4074 1.87438e-18)
(6.55212 3.24267 3.95363e-18)
(6.11352 3.0305 -4.8622e-18)
(5.73352 2.78968 0)
(5.40711 2.59011 -4.41092e-18)
(5.16706 2.42689 5.06017e-18)
(4.99865 2.30126 6.81348e-18)
(4.88451 2.20197 -3.89511e-18)
(4.75925 2.16817 -9.88445e-18)
(4.66261 2.07772 -3.01017e-18)
(4.48961 2.03331 -3.79043e-20)
(3.98047 1.69098 0)
(1.96723 0.906383 0)
(6.41389 2.78443 -1.30545e-17)
(8.25803 4.17273 0)
(8.35949 4.02209 8.04035e-18)
(8.03347 4.07853 -3.72143e-18)
(7.76946 4.00059 -9.48028e-18)
(7.48238 3.90921 2.67936e-18)
(7.1669 3.79274 4.24103e-20)
(6.82536 3.65052 -9.96137e-19)
(6.45194 3.47137 2.66635e-18)
(6.00529 3.24848 -1.95813e-18)
(5.62285 2.99953 2.8439e-18)
(5.29655 2.78713 1.36843e-17)
(5.05304 2.61588 5.27193e-19)
(4.8517 2.47368 -6.91438e-18)
(4.67983 2.34617 1.34082e-17)
(4.5696 2.24629 1.84048e-19)
(4.49599 2.15349 3.21953e-18)
(4.36207 2.11038 -1.57931e-17)
(3.91364 1.84095 1.6245e-17)
(1.91737 0.957106 -1.75451e-17)
(6.29464 3.01015 -1.36762e-20)
(8.16756 4.46522 0)
(8.25486 4.30505 0)
(7.92771 4.36165 3.16562e-18)
(7.6723 4.2562 3.67123e-18)
(7.3853 4.15411 -1.90199e-18)
(7.06992 4.02872 9.07145e-19)
(6.72679 3.87758 0)
(6.34881 3.68649 -4.2477e-18)
(5.89838 3.45412 7.11907e-18)
(5.50935 3.19827 8.55567e-18)
(5.17191 2.97384 -5.15533e-18)
(4.91879 2.78859 -6.45404e-18)
(4.7439 2.64545 1.52395e-17)
(4.63404 2.52921 -4.73419e-18)
(4.52103 2.46363 -5.76198e-18)
(4.42888 2.37543 -3.52232e-18)
(4.26908 2.29458 -1.70897e-17)
(3.81899 1.95162 2.29679e-18)
(1.85687 1.00382 1.88589e-17)
(6.14277 3.15875 -5.16636e-18)
(8.03695 4.75255 -7.1378e-18)
(8.14991 4.58332 9.86096e-19)
(7.80997 4.62385 9.71275e-20)
(7.57235 4.49165 9.87936e-19)
(7.28749 4.38051 -4.99788e-18)
(6.97104 4.24754 0)
(6.62666 4.08892 8.55455e-19)
(6.24619 3.88767 -6.73155e-19)
(5.7928 3.64802 1.14829e-17)
(5.39619 3.38594 -2.14527e-18)
(5.05615 3.15186 2.36096e-18)
(4.80591 2.95711 0)
(4.60655 2.79486 -8.31658e-18)
(4.43864 2.64779 1.03388e-17)
(4.3313 2.52396 0)
(4.25519 2.42597 -7.75104e-18)
(4.1269 2.35602 2.26618e-17)
(3.71123 2.06509 2.76115e-18)
(1.77978 1.0338 -2.32644e-17)
(6.01815 3.34024 -1.07869e-17)
(7.9406 4.98358 1.31836e-17)
(8.03418 4.82507 0)
(7.70223 4.869 7.57499e-18)
(7.47649 4.70765 0)
(7.18906 4.5897 4.58202e-18)
(6.87073 4.44974 0)
(6.52468 4.28466 0)
(6.14186 4.07503 -1.50122e-18)
(5.6871 3.82923 -1.11264e-17)
(5.28404 3.56274 -1.59385e-17)
(4.93473 3.3208 2.95398e-18)
(4.67416 3.11611 1.09459e-17)
(4.49075 2.94827 9.29357e-18)
(4.37918 2.80779 -3.30572e-17)
(4.2727 2.70839 -1.37653e-17)
(4.18153 2.62098 7.97694e-18)
(4.0446 2.49326 0)
(3.61379 2.13991 2.38021e-17)
(1.69691 1.05783 -2.5047e-17)
(5.8925 3.47725 1.18125e-17)
(7.79865 5.22442 -1.43276e-17)
(7.92637 5.06479 0)
(7.60658 5.09817 -3.96348e-19)
(7.38732 4.91477 -3.00612e-18)
(7.09658 4.78865 0)
(6.77378 4.63998 -1.25074e-19)
(6.4245 4.46706 9.81241e-19)
(6.04054 4.24937 -2.26925e-18)
(5.58604 3.99914 1.22932e-18)
(5.17794 3.73038 0)
(4.82631 3.48265 1.17416e-17)
(4.5683 3.26808 1.14602e-20)
(4.36625 3.08412 5.01044e-18)
(4.19087 2.91826 6.11113e-18)
(4.07521 2.77153 0)
(3.99709 2.65638 -1.35995e-17)
(3.87256 2.55504 2.66649e-17)
(3.47643 2.23099 -2.89223e-17)
(1.59122 1.05791 5.41935e-17)
(5.78364 3.62525 0)
(7.73145 5.46033 0)
(7.83507 5.29882 -7.19663e-18)
(7.51503 5.32074 0)
(7.30246 5.1155 0)
(7.00648 4.97924 6.14485e-18)
(6.67923 4.82045 -1.77648e-19)
(6.32716 4.63832 5.84633e-19)
(5.94339 4.41294 -3.49173e-19)
(5.49019 4.15879 0)
(5.07874 3.88899 -2.52627e-18)
(4.71974 3.63849 -9.711e-18)
(4.44629 3.41888 -1.21143e-17)
(4.24039 3.23325 -4.99859e-18)
(4.10909 3.06932 6.63393e-18)
(4.00706 2.93429 -1.56766e-17)
(3.91851 2.82623 2.91797e-17)
(3.78422 2.65015 5.37166e-19)
(3.35057 2.26523 -2.75547e-17)
(1.47402 1.04754 -3.70497e-18)
(5.67522 3.75115 0)
(7.58453 5.62357 -1.03678e-17)
(7.73533 5.47286 8.24104e-18)
(7.42694 5.51591 0)
(7.21823 5.30357 0)
(6.91904 5.16133 -1.35092e-17)
(6.58894 4.99242 0)
(6.23586 4.80056 0)
(5.8539 4.56718 -4.87341e-18)
(5.40248 4.30957 2.15379e-18)
(4.98635 4.0394 -2.08156e-17)
(4.62123 3.7877 0)
(4.34272 3.56192 -1.2879e-17)
(4.12349 3.36233 4.489e-19)
(3.93672 3.17631 -2.07125e-17)
(3.79682 3.0069 8.49294e-18)
(3.71257 2.87295 2.06793e-19)
(3.59456 2.70645 -3.14075e-17)
(3.18396 2.33329 1.49442e-17)
(1.33261 1.00749 4.01248e-18)
(5.60214 3.87891 0)
(7.53768 5.84066 -1.22545e-17)
(7.65729 5.69024 8.50863e-18)
(7.34052 5.70482 1.67387e-17)
(7.13369 5.47837 3.07683e-18)
(6.83081 5.33086 -1.76843e-18)
(6.49977 5.15349 1.14492e-18)
(6.14952 4.95327 7.60032e-19)
(5.77035 4.713 5.2215e-18)
(5.31984 4.45206 1.47015e-17)
(4.89896 4.18144 1.73019e-17)
(4.52598 3.93101 3.20933e-18)
(4.23177 3.70584 1.87392e-17)
(3.99896 3.50959 1.19327e-17)
(3.83718 3.32771 1.49379e-17)
(3.72301 3.15269 -9.22422e-18)
(3.62147 3.01229 -1.14491e-17)
(3.48017 2.77831 1.35138e-17)
(3.02554 2.31461 -8.30752e-18)
(1.17696 0.961712 1.35237e-17)
(5.50487 3.98833 1.78312e-17)
(7.4206 6.00546 1.94101e-17)
(7.5673 5.84961 4.43765e-18)
(7.25196 5.879 2.71053e-19)
(7.04634 5.64186 -1.10792e-17)
(6.74343 5.48904 3.9827e-18)
(6.4148 5.30399 -1.29229e-18)
(6.06926 5.09657 -3.89381e-19)
(5.69237 4.84996 -5.93733e-18)
(5.24237 4.58573 -1.62238e-17)
(4.81651 4.31498 1.11015e-18)
(4.43683 4.06697 0)
(4.13465 3.8414 0)
(3.88615 3.63533 -6.1139e-18)
(3.67375 3.43928 -2.37904e-17)
(3.50079 3.2523 1.97766e-17)
(3.38958 3.08556 1.22427e-17)
(3.25535 2.82927 0)
(2.81077 2.36689 2.68444e-17)
(0.999162 0.873449 -1.52616e-17)
(5.43108 4.10237 -9.13604e-18)
(7.33433 6.14101 7.70693e-18)
(7.47459 6.01169 -1.02322e-17)
(7.15493 6.03221 -1.05443e-17)
(6.95818 5.78971 -4.34003e-18)
(6.65627 5.63351 1.1652e-18)
(6.33211 5.44296 0)
(5.99225 5.22954 -8.47381e-19)
(5.61712 4.97782 6.10314e-19)
(5.16753 4.71077 0)
(4.73827 4.44034 0)
(4.35331 4.19686 2.15134e-18)
(4.03771 3.97881 3.1322e-18)
(3.77229 3.78398 -6.46743e-18)
(3.56907 3.59398 1.71655e-17)
(3.42385 3.3904 -2.13069e-17)
(3.28472 3.21365 -2.64013e-17)
(3.1095 2.90101 2.38394e-17)
(2.58889 2.29658 -9.8435e-18)
(0.762983 0.802573 5.64367e-18)
(5.34701 4.19647 1.06181e-17)
(7.23817 6.31697 0)
(7.37746 6.15352 0)
(7.0622 6.17284 -3.36559e-18)
(6.87397 5.92483 2.70816e-18)
(6.57328 5.76703 -3.12605e-19)
(6.25517 5.57189 -4.05502e-18)
(5.91934 5.35296 -2.29495e-19)
(5.5451 5.09652 1.01368e-17)
(5.09664 4.82678 -1.28723e-18)
(4.66568 4.55741 2.844e-18)
(4.27609 4.31915 -1.8162e-17)
(3.95156 4.10613 -1.89014e-17)
(3.67093 3.90984 -3.38279e-18)
(3.42256 3.71705 0)
(3.20217 3.52275 -3.49924e-19)
(3.02378 3.32731 1.35867e-17)
(2.82376 2.94814 -2.5961e-17)
(2.2879 2.30487 2.02055e-17)
(0.396332 0.485784 1.78346e-17)
(5.27474 4.2867 -2.28265e-17)
(7.15379 6.43401 -9.08432e-18)
(7.30092 6.30449 4.50617e-20)
(6.98522 6.31376 4.46889e-18)
(6.79285 6.05197 0)
(6.49299 5.89231 1.0767e-17)
(6.17891 5.69287 4.77143e-18)
(5.84619 5.46926 -6.66618e-19)
(5.47286 5.20941 -5.0605e-18)
(5.02651 4.93836 -1.24474e-18)
(4.59531 4.67143 1.1517e-18)
(4.20259 4.44053 1.58818e-17)
(3.86685 4.2397 1.83529e-17)
(3.56953 4.06233 3.22075e-18)
(3.31829 3.8869 1.70732e-17)
(3.11542 3.68232 0)
(2.90936 3.4638 0)
(2.62686 3.03179 1.67371e-17)
(1.89595 2.04726 1.83887e-19)
(0.337132 0.897753 -1.75436e-17)
(5.19025 4.37292 1.22772e-17)
(7.08081 6.58173 2.69511e-17)
(7.23487 6.44895 -3.87622e-17)
(6.89983 6.45118 2.19232e-17)
(6.70993 6.17523 -2.31257e-18)
(6.4154 6.01167 1.38204e-17)
(6.10462 5.80856 0)
(5.77408 5.58132 7.98865e-19)
(5.40154 5.31926 0)
(4.95828 5.04809 1.57336e-17)
(4.52795 4.78507 -1.58284e-18)
(4.13204 4.56336 1.76971e-18)
(3.78709 4.37412 2.06429e-17)
(3.4738 4.20396 -7.08919e-18)
(3.18251 4.03686 -9.02413e-18)
(2.90252 3.86833 0)
(2.60957 3.67847 0)
(2.17928 3.15982 0)
(1.14185 2.1317 -8.60507e-18)
(0.585191 1.95932 -5.49319e-18)
(5.11625 4.44469 0)
(6.98221 6.67434 0)
(7.09579 6.52518 1.37445e-17)
(6.78859 6.54799 -1.8136e-17)
(6.63341 6.28731 1.16178e-17)
(6.33814 6.12281 -1.25505e-17)
(6.03042 5.91807 -4.33885e-19)
(5.70228 5.6882 3.35982e-19)
(5.33134 5.42542 8.95442e-19)
(4.89235 5.15562 -1.8008e-17)
(4.46379 4.89771 2.70095e-18)
(4.06689 4.68704 1.56649e-17)
(3.71413 4.51543 -2.04864e-17)
(3.38696 4.37197 -2.31601e-17)
(3.08745 4.23754 8.05121e-18)
(2.81228 4.07651 0)
(2.4949 3.81548 1.27825e-17)
(1.91637 3.0809 1.53992e-17)
(1.19777 2.46214 -1.60083e-17)
(0.790143 2.87185 2.15339e-17)
(5.02739 4.52501 0)
(6.85861 6.77591 2.17177e-17)
(7.02319 6.64908 -3.48074e-18)
(6.73085 6.65541 2.28942e-17)
(6.56831 6.3918 -1.22079e-17)
(6.26528 6.23036 0)
(5.96085 6.02321 0)
(5.63389 5.79142 0)
(5.2646 5.5287 3.25011e-18)
(4.83014 5.26065 6.60349e-19)
(4.40392 5.00804 0)
(4.00663 4.80923 -1.54727e-17)
(3.64839 4.65558 0)
(3.31183 4.53018 1.65228e-17)
(2.98905 4.4095 -1.13843e-17)
(2.66532 4.27149 -9.27642e-18)
(2.26844 3.9986 -2.44315e-17)
(1.58199 3.27687 -1.3001e-17)
(1.14839 3.10954 -2.36282e-17)
(0.936319 3.43932 1.72344e-17)
(5.00419 4.59525 -7.58466e-18)
(6.8495 6.94327 3.12814e-19)
(7.01513 6.81662 -3.15941e-18)
(6.69896 6.80882 -1.77377e-17)
(6.49863 6.50396 0)
(6.19904 6.33826 0)
(5.89285 6.12537 0)
(5.5675 5.89176 5.9889e-20)
(5.20023 5.62971 -4.24424e-18)
(4.77055 5.3641 0)
(4.34733 5.11736 0)
(3.95304 4.93148 0)
(3.59575 4.79919 0)
(3.25654 4.70424 1.2206e-17)
(2.93422 4.62486 3.12349e-17)
(2.61857 4.48609 9.93225e-18)
(2.20607 4.08041 2.29165e-17)
(1.70243 3.54642 -1.78022e-17)
(1.27183 3.74526 7.87056e-18)
(1.11269 3.88545 0)
(4.94694 4.64706 7.27595e-18)
(6.80235 7.01354 -4.23514e-17)
(6.92447 6.90822 -1.00009e-17)
(6.58547 6.90715 -2.76398e-18)
(6.42597 6.6153 2.77851e-18)
(6.13257 6.44386 -1.83015e-17)
(5.82724 6.22744 1.14963e-18)
(5.50435 5.99166 3.2779e-18)
(5.13878 5.73015 0)
(4.71384 5.46652 -1.13264e-18)
(4.29458 5.22489 1.0311e-18)
(3.90555 5.0516 0)
(3.55119 4.94053 0)
(3.21527 4.87015 -1.52832e-17)
(2.89494 4.8018 2.6898e-18)
(2.55797 4.65039 -9.29442e-18)
(2.04751 4.25938 2.04014e-17)
(1.47091 3.92265 1.78999e-17)
(1.10836 4.17063 -3.26276e-17)
(1.02546 4.23901 1.71677e-17)
(4.85654 4.72712 1.35256e-17)
(6.66076 7.07797 3.90329e-17)
(6.78719 6.95998 1.38096e-17)
(6.49448 6.97627 0)
(6.36666 6.713 0)
(6.05845 6.54608 1.37969e-17)
(5.75923 6.33095 -6.85993e-18)
(5.43871 6.09285 -3.13062e-18)
(5.07596 5.83175 -9.16696e-21)
(4.65677 5.56981 1.2694e-17)
(4.24353 5.33308 -1.8573e-17)
(3.86374 5.1719 0)
(3.52127 5.08197 0)
(3.19975 5.04007 -1.08191e-17)
(2.89136 5.00559 -1.42466e-17)
(2.54122 4.85338 0)
(2.03021 4.39344 -2.98095e-17)
(1.69981 4.26832 -5.48351e-18)
(1.42342 4.68291 3.34187e-17)
(1.13874 4.67579 -1.7355e-17)
(4.7938 4.7873 -2.56514e-17)
(6.58393 7.20537 -1.85776e-17)
(6.76412 7.12313 0)
(6.46335 7.12514 0)
(6.2946 6.82506 0)
(5.98259 6.65679 0)
(5.68857 6.43631 7.20741e-18)
(5.37026 6.19581 -4.57993e-18)
(5.01109 5.93437 0)
(4.59888 5.67324 -1.14421e-17)
(4.19389 5.43996 3.35092e-17)
(3.82724 5.28886 1.43511e-18)
(3.50008 5.21845 2.18202e-18)
(3.19433 5.2013 1.82992e-17)
(2.89399 5.16985 -1.22169e-17)
(2.53922 4.9704 0)
(2.06071 4.65108 9.60118e-18)
(1.61617 4.8212 7.1299e-19)
(1.13246 5.08451 -5.0511e-18)
(0.743547 5.13706 1.04567e-17)
(4.75295 4.87396 1.21487e-17)
(6.55483 7.34035 -1.80926e-17)
(6.69832 7.25498 0)
(6.36435 7.25561 -4.0583e-18)
(6.19893 6.94291 1.49414e-17)
(5.90022 6.77076 0)
(5.60803 6.54263 0)
(5.2954 6.29899 8.42362e-18)
(4.94149 6.03669 -5.30178e-19)
(4.53818 5.77608 1.10498e-17)
(4.14456 5.54596 -1.59242e-17)
(3.79446 5.40294 1.03456e-17)
(3.48885 5.34812 0)
(3.20774 5.35091 -9.98456e-18)
(2.9263 5.33715 6.24903e-18)
(2.57552 5.16739 6.78934e-18)
(2.08853 4.89933 0)
(1.74994 5.13087 4.74475e-18)
(1.29676 5.74743 7.96511e-18)
(1.18336 5.93752 2.3983e-18)
(4.63679 4.90862 -2.27679e-17)
(6.41608 7.41687 2.60805e-17)
(6.54034 7.32479 1.81042e-17)
(6.23571 7.33349 -4.65622e-18)
(6.10514 7.0468 -2.24649e-17)
(5.80544 6.87752 0)
(5.5221 6.64809 6.3313e-18)
(5.21638 6.40147 -3.61314e-18)
(4.86858 6.13815 -1.64288e-19)
(4.47593 5.8774 -9.61041e-18)
(4.09574 5.64891 -7.80477e-19)
(3.76509 5.51073 -1.16016e-17)
(3.48404 5.46698 1.42023e-17)
(3.22892 5.4848 4.53661e-18)
(2.96411 5.47689 -1.05917e-17)
(2.597 5.25781 1.13415e-17)
(2.30045 5.09412 0)
(1.9466 5.77292 0)
(1.70092 6.39066 1.32572e-18)
(0.472173 6.44763 -5.13847e-18)
(4.53696 4.99346 1.09374e-17)
(6.28517 7.5337 2.40732e-17)
(6.43415 7.45017 -1.80377e-17)
(6.14691 7.45239 1.64624e-17)
(6.00931 7.15472 2.17607e-17)
(5.70382 6.98459 0)
(5.43027 6.75245 -6.72359e-18)
(5.13091 6.50204 -5.03209e-18)
(4.79143 6.23712 0)
(4.41127 5.97547 0)
(4.0475 5.74808 0)
(3.7382 5.61194 0)
(3.48284 5.57276 -1.61811e-17)
(3.2588 5.5948 -6.14869e-18)
(3.02421 5.579 0)
(2.70452 5.40482 -5.89903e-18)
(2.52665 5.49086 0)
(2.55668 5.82374 -2.46803e-18)
(2.61501 5.82837 1.05891e-18)
(1.42599 5.86325 9.10643e-19)
(4.4437 5.0494 -2.08498e-17)
(6.18547 7.65839 -1.53263e-17)
(6.34015 7.59962 -1.12585e-17)
(6.03473 7.59277 -1.53509e-17)