/*--------------------------------*- C++ -*----------------------------------*\
| =========                 |                                                 |
| \\      /  F ield         | OpenFOAM: The Open Source CFD Toolbox           |
|  \\    /   O peration     | Version:  2412                                  |
|   \\  /    A nd           | Website:  www.openfoam.com                      |
|    \\/     M anipulation  |                                                 |
\*---------------------------------------------------------------------------*/
FoamFile
{
    version     2.0;
    format      ascii;
    arch        "LSB;label=32;scalar=64";
    class       volScalarField;
    location    "0.24";
    object      epsilon;
}
// * * * * * * * * * * * * * * * * * * * * * * * * * * * * * * * * * * * * * //

dimensions      [0 2 -3 0 0 0 0];

internalField   nonuniform List<scalar> 
12225
(
448.248
622.894
830.557
1004.83
1150.4
1270.22
1368.62
1449.63
1516.36
1571.37
1616.74
1654.11
1684.79
1709.77
1729.83
1745.35
1756.67
1766.61
173.744
302.084
403.102
480.178
539.345
585.698
622.137
650.861
673.573
691.539
705.723
716.874
725.585
732.322
737.488
741.332
744.648
744.487
119.435
232.402
315.512
376.254
421.162
455.029
480.63
499.96
514.533
525.462
533.569
539.483
543.693
546.585
548.491
549.673
550.563
550.229
97.6414
199.979
277.776
334.832
376.772
407.859
430.863
447.789
460.145
469.044
475.312
479.575
482.314
483.91
484.683
484.907
484.921
484.518
83.6526
176.289
251.577
308.548
351.099
382.721
406.064
423.141
435.483
444.242
450.285
454.271
456.709
458.001
458.479
458.434
458.169
457.711
71.9917
153.972
226.31
283.823
328.194
361.835
387.034
405.699
419.345
429.147
436.01
440.636
443.572
445.252
446.032
446.219
446.095
445.752
61.3441
131.281
198.624
255.576
301.538
337.584
365.348
386.457
402.305
414.03
422.547
428.583
432.717
435.413
437.053
437.956
438.391
438.456
51.6696
108.73
168.486
222.629
268.751
306.556
336.797
360.608
379.121
393.344
404.136
412.21
418.151
422.44
425.471
427.575
429.005
429.852
43.2224
87.6449
137.685
186.323
230.295
268.238
299.979
326.013
347.069
363.911
377.256
387.74
395.911
402.234
407.1
410.832
413.673
415.687
36.1697
69.2408
108.631
149.499
188.751
224.538
255.993
282.974
305.732
324.697
340.358
353.205
363.692
372.226
379.162
384.795
389.344
392.837
30.4983
54.138
83.3274
115.312
147.811
179.109
208.061
234.087
257.019
276.935
294.054
308.663
321.071
331.582
340.476
347.995
354.316
359.414
26.3765
43.197
64.2821
88.2375
113.645
139.251
164.035
187.297
208.644
227.91
245.091
260.278
273.625
285.31
295.52
304.423
312.135
318.561
23.1424
34.7463
49.3126
66.2677
84.8736
104.384
124.076
143.344
161.749
179.008
194.965
209.564
222.817
234.784
245.547
255.194
263.773
271.128
20.3782
27.6943
36.7518
47.4267
59.4446
72.4823
86.1715
100.139
114.057
127.659
140.75
153.194
164.908
175.854
186.021
195.415
204.015
211.62
18.1499
22.2406
27.1487
32.9137
39.4891
46.7952
54.7161
63.105
71.8044
80.6635
89.5472
98.3397
106.947
115.296
123.333
131.014
138.282
144.935
16.4706
18.3567
20.5273
23.0283
25.8742
29.0686
32.6037
36.4548
40.5838
44.9452
49.4896
54.1665
58.9271
63.7254
68.5197
73.2701
77.9281
82.361
15.3282
15.873
16.4959
17.2133
18.0328
18.9609
20.0037
21.1643
22.4423
23.834
25.3334
26.9318
28.6189
30.3807
32.2034
34.073
35.972
37.8579
14.7508
14.6757
14.6369
14.6352
14.6697
14.7396
14.8449
14.986
15.163
15.3758
15.6242
15.9075
16.225
16.5768
16.9622
17.3792
17.825
18.2955
14.8977
14.9733
15.0873
15.2435
15.4418
15.6822
15.9649
16.2899
16.6563
17.0625
17.5063
17.9852
18.4962
19.0358
19.6007
20.1869
20.7901
21.3964
15.9708
17.2606
18.7266
20.3955
22.2739
24.3608
26.6497
29.1246
31.7618
34.5325
37.4058
40.3499
43.3343
46.3302
49.3117
52.2558
55.1378
57.8977
18.0496
21.997
26.6903
32.1486
38.3093
45.0764
52.3262
59.9126
67.6844
75.5016
83.2422
90.8054
98.1119
105.103
111.738
117.992
123.845
129.252
21.5632
30.653
41.9214
55.0381
69.4977
84.7821
100.381
115.834
130.776
144.949
158.185
170.394
181.542
191.639
200.722
208.848
216.078
222.457
27.2186
45.3008
67.7872
92.9387
119.107
145.002
169.645
192.394
212.923
231.137
247.087
260.907
272.78
282.907
291.488
298.715
304.761
309.785
35.7146
67.6769
105.679
144.952
182.518
216.744
246.82
272.574
294.23
312.19
326.913
338.857
348.445
356.054
362.011
366.597
370.049
372.595
47.408
97.6116
152.03
202.69
246.855
283.889
314.074
338.201
357.206
371.976
383.289
391.804
398.067
402.525
405.54
407.406
408.365
408.652
61.8882
131.752
198.705
254.807
299.835
335.07
362.112
382.56
397.801
408.962
416.939
422.438
426.011
428.09
429.011
429.04
428.39
427.277
78.4671
165.762
239.653
296.704
339.787
371.976
395.787
413.193
425.729
434.563
440.58
444.45
446.681
447.661
447.688
446.993
445.758
444.17
99.5998
200.965
279.478
337.821
380.456
411.806
434.888
451.764
463.979
472.69
478.744
482.772
485.25
486.538
486.915
486.595
485.746
484.538
144.792
258.315
348.614
417.597
468.464
506.746
535.87
558.047
574.949
587.822
597.579
604.903
610.318
614.229
616.953
618.739
619.781
620.28
366.941
498.482
666.582
808.025
923.443
1016.68
1091.7
1152.36
1201.64
1241.81
1274.65
1301.59
1323.76
1342.03
1357.12
1369.61
1379.91
1388.47
0.857095
0.820187
1.2052
1.54416
1.8266
2.06902
2.33741
2.64488
2.98118
3.34982
3.75986
4.23298
4.83964
5.60902
6.49855
7.50659
8.63884
9.90511
11.3154
12.8782
14.5997
16.4838
18.5323
20.7455
23.123
25.6645
28.3709
31.2453
34.2945
37.5308
40.974
44.6036
48.3872
52.3181
56.3915
60.603
64.9484
69.424
74.0263
78.7519
83.5978
88.5608
93.638
98.8264
104.123
109.525
115.029
120.631
126.328
132.115
137.99
143.946
149.981
156.087
162.261
168.497
174.789
181.13
187.515
193.937
200.389
206.865
213.357
219.858
226.36
232.857
239.341
245.805
252.241
258.644
265.009
271.334
277.622
283.886
290.152
296.371
302.489
308.507
314.423
320.232
325.928
331.504
336.954
342.27
347.446
352.474
357.35
362.066
366.616
370.996
375.199
379.22
383.055
386.699
390.148
393.397
396.443
399.282
401.912
404.328
406.53
408.513
410.277
411.819
413.139
414.233
415.103
415.747
416.165
416.357
416.322
416.063
415.578
414.871
413.942
412.792
411.425
409.842
408.047
406.042
403.831
401.417
398.805
395.999
393.004
389.824
386.466
382.934
379.234
375.372
371.356
367.191
362.884
358.442
353.874
349.185
344.384
339.479
334.474
329.39
324.218
318.994
313.763
308.798
305.549
302.864
300.151
297.37
294.52
291.606
288.633
285.605
282.528
279.407
276.247
273.053
269.831
266.586
263.323
260.046
256.761
253.473
250.185
246.902
243.628
240.366
237.12
233.89
230.678
227.482
224.301
221.127
217.948
214.744
211.474
208.067
204.363
199.959
194.172
186.311
2.67086
1.48416
1.32777
1.38629
1.54056
1.77196
2.07392
2.44537
2.87776
3.37525
3.94216
4.58389
5.30661
6.11017
6.98796
7.93469
8.94602
10.018
11.1464
12.3274
13.5568
14.8315
16.1485
17.5063
18.904
20.3416
21.82
23.3408
24.9055
26.5156
28.1713
29.8702
31.6102
33.3908
35.2117
37.0728
38.9739
40.9146
42.8945
44.9132
46.97
49.0643
51.1951
53.3618
55.5632
57.7983
60.0659
62.3648
64.6937
67.051
69.4353
71.8449
74.2782
76.7334
79.2085
81.7018
84.2111
86.7343
89.2694
91.8142
94.3663
96.9235
99.4834
102.044
104.602
107.156
109.703
112.241
114.769
117.284
119.788
122.279
124.763
127.244
129.739
132.238
134.708
137.142
139.539
141.896
144.21
146.479
148.7
150.871
152.988
155.05
157.054
158.997
160.878
162.694
164.443
166.123
167.732
169.268
170.73
172.116
173.423
174.652
175.8
176.866
177.85
178.749
179.563
180.291
180.933
181.487
181.954
182.332
182.621
182.822
182.933
182.955
182.889
182.733
182.49
182.158
181.738
181.232
180.64
179.963
179.202
178.358
177.432
176.426
175.342
174.181
172.944
171.635
170.254
168.804
167.287
165.705
164.061
162.357
160.597
158.781
156.915
154.999
153.034
151.032
148.977
146.903
144.836
142.843
141.141
139.572
138.015
136.444
134.852
133.24
131.609
129.96
128.295
126.617
124.928
123.23
121.525
119.816
118.104
116.391
114.681
112.974
111.272
109.578
107.892
106.217
104.554
102.905
101.269
99.6481
98.0425
96.4518
94.8753
93.3111
91.7561
90.2069
88.6551
87.1121
85.7715
85.8093
4.81374
2.34529
1.98689
2.01289
2.19204
2.45845
2.80393
3.22744
3.72697
4.29947
4.94034
5.6439
6.40396
7.21361
8.06589
8.955
9.87651
10.8273
11.8052
12.8092
13.8389
14.8945
15.977
17.0873
18.227
19.3972
20.5993
21.834
23.1019
24.403
25.7368
27.1026
28.4995
29.9271
31.3846
32.8716
34.3875
35.9317
37.5036
39.1026
40.728
42.3793
44.0557
45.7568
47.4816
49.2297
51
52.792
54.6047
56.4372
58.2886
60.1578
62.0438
63.9454
65.8614
67.7906
69.7317
71.6833
73.644
75.6123
77.5868
79.5659
81.5482
83.5321
85.5161
87.4989
89.4792
91.4558
93.4279
95.395
97.3569
99.3142
101.268
103.219
105.168
107.103
109.015
110.902
112.76
114.586
116.38
118.138
119.859
121.541
123.181
124.778
126.329
127.833
129.289
130.694
132.046
133.345
134.588
135.775
136.903
137.972
138.981
139.928
140.812
141.632
142.388
143.078
143.702
144.259
144.749
145.171
145.525
145.81
146.026
146.173
146.251
146.26
146.2
146.071
145.874
145.608
145.274
144.873
144.405
143.871
143.272
142.609
141.883
141.094
140.244
139.335
138.367
137.342
136.262
135.128
133.942
132.705
131.42
130.087
128.711
127.29
125.83
124.331
122.788
121.225
119.632
118.022
116.41
114.827
113.331
111.886
110.454
109.018
107.572
106.114
104.647
103.17
101.685
100.194
98.6978
97.1991
95.6992
94.1998
92.7023
91.2085
89.7198
88.2377
86.7637
85.2991
83.8453
82.4035
80.9748
79.5604
78.1613
76.7784
75.4126
74.0647
72.7358
71.4274
70.1421
68.8864
67.6727
66.5452
65.6264
65.5042
7.03888
3.31977
2.79337
2.78256
2.94836
3.22451
3.59034
4.03716
4.55856
5.14737
5.79521
6.49312
7.23252
8.00597
8.80765
9.63363
10.4817
11.3512
12.2425
13.1565
14.0947
15.0587
16.0501
17.0703
18.1205
19.2013
20.3133
21.4567
22.6311
23.8363
25.0715
26.3361
27.6294
28.9507
30.2996
31.6754
33.0776
34.5057
35.9594
37.4381
38.9415
40.469
42.0203
43.595
45.1925
46.8125
48.4543
50.1174
51.8011
53.5047
55.2276
56.9688
58.7275
60.5028
62.2936
64.0988
65.9173
67.7479
69.5892
71.44
73.2989
75.1646
77.0355
78.9104
80.7878
82.6664
84.545
86.4223
88.2972
90.169
92.0368
93.8999
95.7575
97.6088
99.4487
101.271
103.072
104.847
106.595
108.313
110
111.652
113.268
114.845
116.383
117.879
119.331
120.737
122.096
123.406
124.665
125.872
127.026
128.126
129.169
130.155
131.082
131.951
132.759
133.506
134.191
134.813
135.372
135.868
136.299
136.665
136.967
137.203
137.374
137.479
137.519
137.493
137.402
137.246
137.026
136.741
136.393
135.981
135.506
134.97
134.373
133.716
133
132.226
131.395
130.509
129.568
128.575
127.53
126.435
125.292
124.103
122.87
121.592
120.274
118.915
117.52
116.095
114.637
113.155
111.649
110.126
108.596
107.076
105.587
104.121
102.662
101.201
99.7341
98.261
96.7817
95.2971
93.8086
92.3177
90.8258
89.3345
87.8452
86.3596
84.879
83.405
81.9388
80.4819
79.0355
77.601
76.1793
74.7719
73.3796
72.0037
70.6451
69.305
67.9844
66.6848
65.408
64.1567
62.9357
61.7545
60.6307
59.6081
58.7753
58.4012
9.05312
4.31964
3.60981
3.52694
3.66739
3.93494
4.29692
4.73827
5.24886
5.81949
6.44097
7.10447
7.80228
8.52837
9.27867
10.051
10.8447
11.6604
12.4994
13.3633
14.2538
15.1725
16.1207
17.0996
18.1097
19.1516
20.2253
21.3307
22.4676
23.6354
24.8338
26.0621
27.3199
28.6068
29.9223
31.2661
32.6378
34.0371
35.4637
36.9174
38.398
39.905
41.4384
42.9977
44.5827
46.193
47.8281
49.4875
51.1708
52.8773
54.6062
56.3568
58.1283
59.9196
61.7298
63.5576
65.402
67.2616
69.135
71.021
72.9178
74.8242
76.7384
78.6589
80.5842
82.5125
84.4425
86.3724
88.3009
90.2265
92.1476
94.0628
95.9705
97.8674
99.7486
101.61
103.448
105.259
107.041
108.792
110.51
112.191
113.834
115.437
116.998
118.514
119.984
121.406
122.778
124.099
125.366
126.579
127.736
128.835
129.876
130.857
131.777
132.634
133.43
134.161
134.828
135.43
135.967
136.437
136.841
137.178
137.449
137.652
137.788
137.856
137.858
137.792
137.66
137.462
137.198
136.869
136.474
136.016
135.495
134.911
134.265
133.56
132.794
131.971
131.091
130.155
129.166
128.123
127.031
125.888
124.697
123.462
122.182
120.857
119.497
118.101
116.67
115.209
113.718
112.202
110.664
109.109
107.544
105.978
104.422
102.875
101.33
99.785
98.2362
96.6835
95.1274
93.5691
92.0097
90.4507
88.8937
87.34
85.7913
84.2491
82.7146
81.1894
79.6748
78.1721
76.6826
75.2074
73.7478
72.3048
70.8796
69.4733
68.087
66.7219
65.3793
64.061
62.7693
61.5077
60.282
59.1027
57.9881
56.9763
56.1286
55.5711
10.9469
5.246
4.3342
4.1801
4.2864
4.53191
4.87404
5.29283
5.77581
6.31316
6.89622
7.51743
8.17061
8.8513
9.5568
10.286
11.0389
11.8166
12.6204
13.4518
14.3124
15.2035
16.1261
17.0812
18.0692
19.0904
20.145
21.233
22.3542
23.5084
24.6954
25.915
27.1669
28.4509
29.7668
31.1146
32.494
33.905
35.3475
36.8213
38.3263
39.8625
41.4297
43.0277
44.6561
46.3148
48.0034
49.7213
51.468
53.243
55.0454
56.8744
58.7291
60.6084
62.5111
64.4361
66.3818
68.3468
70.3296
72.3285
74.3417
76.3675
78.4041
80.4494
82.5015
84.5586
86.6185
88.6792
90.7388
92.7952
94.8463
96.89
98.9242
100.943
102.944
104.921
106.872
108.794
110.684
112.539
114.358
116.136
117.873
119.566
121.212
122.809
124.355
125.849
127.288
128.671
129.996
131.261
132.464
133.606
134.683
135.696
136.642
137.521
138.332
139.075
139.748
140.351
140.883
141.344
141.735
142.053
142.3
142.476
142.579
142.611
142.572
142.462
142.281
142.031
141.71
141.321
140.864
140.339
139.748
139.092
138.372
137.588
136.743
135.837
134.873
133.852
132.774
131.642
130.459
129.225
127.939
126.611
125.24
123.826
122.375
120.888
119.367
117.815
116.234
114.629
113.001
111.355
109.697
108.033
106.369
104.707
103.045
101.382
99.7162
98.049
96.3807
94.7125
93.0458
91.3822
89.7232
88.0703
86.4251
84.7891
83.1637
81.5504
79.9505
78.3653
76.7961
75.244
73.7104
72.1963
70.7029
69.2313
67.7827
66.3584
64.9601
63.5896
62.2496
60.9442
59.6796
58.4665
57.3222
56.2776
55.3746
54.6747
13.8908
6.23758
4.99037
4.7274
4.78227
4.99424
5.30724
5.69579
6.14532
6.64574
7.18918
7.76936
8.3815
9.02232
9.69001
10.384
11.1045
11.8525
12.6293
13.4362
14.2744
15.1452
16.0495
16.9881
17.9615
18.9704
20.0149
21.0953
22.2118
23.3645
24.5535
25.779
27.0409
28.3395
29.6748
31.0469
32.456
33.9021
35.3854
36.906
38.4639
40.059
41.6915
43.361
45.0676
46.8108
48.5903
50.4057
52.2563
54.1415
56.0605
58.0121
59.9955
62.0092
64.052
66.1222
68.2184
70.3387
72.4813
74.6441
76.825
79.022
81.2327
83.4547
85.6857
87.9233
90.1648
92.4079
94.6498
96.8881
99.1201
101.343
103.554
105.745
107.914
110.056
112.169
114.249
116.292
118.297
120.26
122.178
124.049
125.871
127.64
129.354
131.012
132.611
134.148
135.623
137.034
138.377
139.653
140.86
141.996
143.06
144.051
144.968
145.811
146.577
147.268
147.881
148.418
148.877
149.258
149.561
149.786
149.934
150.003
149.996
149.911
149.749
149.512
149.199
148.811
148.35
147.816
147.21
146.533
145.786
144.972
144.091
143.144
142.133
141.06
139.928
138.737
137.487
136.186
134.834
133.431
131.982
130.489
128.954
127.379
125.768
124.123
122.446
120.741
119.01
117.257
115.486
113.7
111.906
110.107
108.305
106.503
104.699
102.894
101.089
99.2844
97.4828
95.6851
93.8931
92.1083
90.3324
88.5669
86.8135
85.0737
83.3489
81.6404
79.9497
78.278
76.6266
74.9967
73.3895
71.8061
70.2477
68.7158
67.2116
65.7369
64.2938
62.8854
61.5159
60.1918
58.9232
57.7255
56.6237
55.6452
54.8218
16.6848
7.11501
5.52756
5.14849
5.14567
5.31932
5.59996
5.95673
6.37303
6.83844
7.34565
7.88935
8.46575
9.0724
9.708
10.3722
11.0654
11.7885
12.5424
13.3285
14.1479
15.0018
15.8912
16.8169
17.7799
18.7809
19.8204
20.8992
22.0177
23.1765
24.376
25.6168
26.8994
28.2241
29.5914
31.0018
32.4557
33.9534
35.4952
37.0815
38.7124
40.3882
42.1088
43.8742
45.6844
47.539
49.4376
51.3798
53.3649
55.392
57.4601
59.5681
61.7147
63.8984
66.1175
68.3702
70.6544
72.9681
75.309
77.6747
80.0625
82.4699
84.8942
87.3324
89.7817
92.239
94.7013
97.1656
99.6286
102.087
104.538
106.979
109.402
111.802
114.175
116.518
118.826
121.096
123.325
125.51
127.647
129.733
131.765
133.741
135.658
137.514
139.305
141.029
142.685
144.27
145.783
147.221
148.584
149.869
151.075
152.201
153.247
154.21
155.09
155.886
156.598
157.226
157.768
158.225
158.597
158.883
159.084
159.199
159.23
159.176
159.039
158.818
158.515
158.13
157.664
157.119
156.495
155.793
155.015
154.163
153.239
152.243
151.177
150.041
148.842
147.58
146.257
144.875
143.437
141.945
140.401
138.81
137.172
135.491
133.769
132.01
130.216
128.391
126.536
124.655
122.753
120.831
118.894
116.946
114.992
113.033
111.073
109.111
107.149
105.189
103.232
101.28
99.3345
97.397
95.4695
93.5537
91.6513
89.764
87.8933
86.0407
84.2076
82.3956
80.6058
78.8395
77.0981
75.3827
73.6946
72.035
70.4053
68.8071
67.2422
65.713
64.2225
62.7751
61.3773
60.0384
58.7718
57.597
56.5316
55.5927
19.1431
7.83644
5.93332
5.44286
5.38255
5.51746
5.76606
6.09257
6.47844
6.91272
7.38838
7.90069
8.44647
9.02381
9.63176
10.2701
10.9394
11.6403
12.3739
13.1414
13.9441
14.7832
15.66
16.5755
17.531
18.5275
19.5662
20.6479
21.7738
22.9448
24.1619
25.4259
26.7378
28.0984
29.5086
30.9691
32.4806
34.0439
35.6594
37.3278
39.0493
40.8244
42.6531
44.5356
46.4717
48.4611
50.5034
52.5981
54.7442
56.9407
59.1866
61.4802
63.8201
66.2044
68.631
71.0978
73.6022
76.1417
78.7136
81.3148
83.9423
86.5929
89.2633
91.9502
94.6499
97.3589
100.074
102.79
105.505
108.215
110.915
113.602
116.265
118.901
121.505
124.073
126.601
129.085
131.521
133.907
136.237
138.51
140.721
142.868
144.948
146.958
148.895
150.757
152.542
154.247
155.871
157.411
158.866
160.235
161.516
162.708
163.81
164.821
165.739
166.565
167.298
167.937
168.482
168.933
169.291
169.555
169.725
169.802
169.786
169.678
169.479
169.189
168.809
168.341
167.785
167.144
166.417
165.607
164.714
163.742
162.692
161.567
160.368
159.096
157.756
156.349
154.878
153.345
151.752
150.104
148.402
146.649
144.848
143.003
141.116
139.191
137.229
135.236
133.213
131.164
129.093
127.002
124.896
122.779
120.653
118.523
116.391
114.258
112.127
109.999
107.877
105.761
103.655
101.559
99.4768
97.4088
95.3574
93.3241
91.3106
89.3186
87.3495
85.4047
83.4856
81.5935
79.7298
77.8956
76.0924
74.3213
72.5839
70.8818
69.2169
67.5917
66.0094
64.4743
62.9927
61.5729
60.2263
58.968
57.8087
56.7583
21.1883
8.39532
6.21427
5.62267
5.50836
5.60635
5.82476
6.12355
6.48233
6.88953
7.33809
7.82354
8.34308
8.89512
9.47894
10.0945
10.7424
11.4235
12.1388
12.8898
13.6779
14.5045
15.3711
16.2794
17.2308
18.2269
19.2692
20.3593
21.4986
22.6886
23.9308
25.2266
26.5773
27.9843
29.4488
30.972
32.5548
34.1984
35.9036
37.6711
39.5015
41.3952
43.3526
45.3736
47.4582
49.606
51.8165
54.0889
56.4223
58.8152
61.2662
63.7736
66.3353
68.9491
71.6124
74.3226
77.0766
79.8712
82.7032
85.5689
88.4648
91.3869
94.3313
97.2941
100.271
103.258
106.251
109.245
112.237
115.221
118.195
121.147
124.071
126.961
129.814
132.624
135.387
138.099
140.756
143.354
145.889
148.358
150.758
153.083
155.333
157.503
159.591
161.594
163.51
165.337
167.072
168.715
170.262
171.714
173.067
174.322
175.477
176.531
177.483
178.332
179.079
179.723
180.264
180.702
181.037
181.27
181.4
181.428
181.356
181.183
180.911
180.541
180.073
179.508
178.85
178.099
177.258
176.327
175.308
174.204
173.017
171.749
170.403
168.98
167.485
165.919
164.285
162.586
160.825
159.005
157.129
155.2
153.222
151.197
149.13
147.023
144.88
142.704
140.498
138.266
136.012
133.739
131.45
129.15
126.842
124.529
122.215
119.902
117.591
115.286
112.988
110.7
108.424
106.161
103.915
101.686
99.4764
97.2886
95.1241
92.9844
90.8711
88.7856
86.7294
84.7039
82.7103
80.75
78.8243
76.9346
75.0824
73.2695
71.4977
69.7698
68.0887
66.4589
64.8861
63.3777
61.9433
60.5944
59.3369
58.1774
22.7841
8.79794
6.38478
5.70562
5.54268
5.60661
5.79718
6.07083
6.40556
6.78916
7.21437
7.67677
8.17377
8.70396
9.26684
9.86258
10.4918
11.1557
11.8555
12.5928
13.3693
14.1869
15.0475
15.953
16.9056
17.9072
18.9599
20.0659
21.2271
22.4457
23.7235
25.0626
26.4647
27.9318
29.4654
31.0672
32.7386
34.4809
36.2951
38.1824
40.1433
42.1785
44.2882
46.4725
48.7312
51.0637
53.4695
55.9474
58.496
61.1138
63.7987
66.5487
69.3611
72.2331
75.1617
78.1435
81.1748
84.2519
87.3707
90.5268
93.7161
96.9339
100.176
103.437
106.713
109.998
113.289
116.58
119.866
123.142
126.402
129.633
132.828
135.983
139.093
142.152
145.157
148.102
150.984
153.797
156.539
159.205
161.791
164.295
166.711
169.038
171.273
173.412
175.454
177.396
179.237
180.974
182.606
184.131
185.549
186.857
188.055
189.143
190.118
190.98
191.73
192.368
192.892
193.305
193.606
193.795
193.872
193.84
193.697
193.447
193.089
192.625
192.056
191.385
190.612
189.74
188.771
187.706
186.548
185.299
183.962
182.539
181.033
179.446
177.783
176.044
174.235
172.357
170.415
168.411
166.348
164.231
162.063
159.848
157.588
155.288
152.951
150.581
148.182
145.756
143.308
140.842
138.361
135.869
133.37
130.867
128.363
125.861
123.365
120.876
118.396
115.929
113.477
111.041
108.624
106.229
103.856
101.508
99.1874
96.8947
94.632
92.4008
90.2025
88.0386
85.9104
83.8193
81.7665
79.7537
77.7822
75.8539
73.9709
72.1355
70.3511
68.6217
66.9526
65.3503
63.8227
62.3785
61.0205
59.7538
23.9188
9.05593
6.46152
5.71057
5.50558
5.53895
5.70421
5.95512
6.26845
6.63138
7.03644
7.4792
7.95713
8.469
9.0145
9.59402
10.2085
10.8592
11.5478
12.2763
13.0468
13.8615
14.723
15.6337
16.5962
17.6132
18.6874
19.8214
21.018
22.2797
23.6091
25.0086
26.4808
28.0278
29.6518
31.3547
33.1384
35.0043
36.9539
38.9881
41.1079
43.3137
45.6057
47.9839
50.4479
52.9968
55.6296
58.3448
61.1405
64.0147
66.9648
69.988
73.0811
76.2406
79.4627
82.7434
86.0783
89.4628
92.8919
96.3606
99.8638
103.396
106.953
110.529
114.118
117.716
121.316
124.914
128.504
132.081
135.63
139.14
142.608
146.027
149.391
152.697
155.938
159.11
162.209
165.229
168.168
171.021
173.784
176.453
179.025
181.496
183.863
186.125
188.278
190.321
192.251
194.068
195.768
197.351
198.816
200.162
201.389
202.493
203.475
204.334
205.071
205.686
206.179
206.55
206.8
206.93
206.94
206.832
206.605
206.263
205.805
205.234
204.551
203.758
202.858
201.851
200.741
199.53
198.219
196.813
195.313
193.723
192.045
190.282
188.439
186.517
184.521
182.454
180.319
178.12
175.862
173.547
171.179
168.763
166.302
163.8
161.261
158.689
156.087
153.461
150.812
148.146
145.466
142.776
140.08
137.381
134.683
131.99
129.303
126.626
123.962
121.312
118.68
116.068
113.479
110.914
108.375
105.864
103.384
100.936
98.5213
96.142
93.7993
91.4947
89.2296
87.0053
84.8233
82.685
80.592
78.5461
76.5493
74.6041
72.7136
70.8818
69.1132
67.4137
65.7896
64.2476
62.7882
61.4164
24.5952
9.18259
6.46078
5.65524
5.41576
5.42268
5.56547
5.79615
6.09069
6.43589
6.82412
7.25096
7.71397
8.21211
8.7453
9.31419
9.92005
10.5646
11.2499
11.9783
12.7526
13.5756
14.4503
15.38
16.3677
17.417
18.5311
19.7134
20.9671
22.2955
23.7017
25.1887
26.7594
28.4166
30.1626
31.9999
33.9303
35.9557
38.0773
40.2962
42.6131
45.0284
47.5421
50.1535
52.8619
55.666
58.5641
61.5542
64.6336
67.7996
71.0487
74.3775
77.7819
81.2576
84.8001
88.4045
92.0658
95.7785
99.5362
103.333
107.164
111.022
114.903
118.8
122.708
126.62
130.531
134.436
138.329
142.197
146.024
149.804
153.53
157.198
160.802
164.335
167.794
171.174
174.468
177.674
180.788
183.805
186.722
189.534
192.237
194.827
197.303
199.662
201.902
204.021
206.017
207.888
209.633
211.251
212.74
214.1
215.329
216.428
217.395
218.23
218.933
219.506
219.947
220.258
220.44
220.492
220.417
220.215
219.888
219.437
218.864
218.17
217.358
216.429
215.386
214.231
212.967
211.596
210.12
208.544
206.87
205.101
203.24
201.291
199.257
197.142
194.95
192.684
190.349
187.948
185.485
182.965
180.391
177.767
175.099
172.389
169.643
166.863
164.055
161.223
158.369
155.5
152.617
149.727
146.831
143.935
141.042
138.155
135.277
132.411
129.561
126.729
123.918
121.129
118.367
115.632
112.927
110.254
107.615
105.011
102.445
99.9175
97.4305
94.9854
92.5835
90.2263
87.915
85.6512
83.4366
81.2727
79.1618
77.1062
75.1089
73.1735
71.3043
69.5062
67.7843
66.1436
64.5836
63.1091
24.8232
9.19089
6.39722
5.55539
5.28991
5.27535
5.39929
5.61302
5.89222
6.22361
6.59962
7.01595
7.4704
7.96218
8.49156
9.05958
9.66793
10.3189
11.015
11.7594
12.5553
13.4064
14.3163
15.289
16.3285
17.4389
18.6243
19.8886
21.2358
22.6694
24.193
25.8102
27.5243
29.3382
31.2546
33.2758
35.4038
37.6402
39.9861
42.4423
45.009
47.6859
50.4725
53.3676
56.3695
59.4761
62.6849
65.9928
69.3965
72.892
76.4751
80.1412
83.8853
87.7023
91.5867
95.533
99.5357
103.59
107.684
111.814
115.973
120.156
124.356
128.567
132.783
136.998
141.206
145.401
149.576
153.705
157.782
161.8
165.754
169.638
173.446
177.174
180.815
184.365
187.819
191.173
194.423
197.565
200.596
203.51
206.306
208.979
211.528
213.949
216.242
218.403
220.431
222.324
224.082
225.703
227.185
228.53
229.734
230.799
231.724
232.509
233.153
233.658
234.024
234.252
234.343
234.297
234.116
233.801
233.354
232.776
232.069
231.236
230.278
229.197
227.997
226.679
225.247
223.704
222.052
220.294
218.434
216.476
214.423
212.278
210.046
207.73
205.335
202.864
200.322
197.713
195.041
192.311
189.526
186.692
183.813
180.893
177.937
174.948
171.932
168.893
165.834
162.761
159.676
156.586
153.492
150.4
147.312
144.234
141.167
138.115
135.082
132.07
129.082
126.12
123.187
120.285
117.417
114.584
111.789
109.033
106.318
103.645
101.017
98.4339
95.8978
93.4099
90.9717
88.5846
86.2502
83.9703
81.7468
79.5822
77.4791
75.441
73.4717
71.5753
69.756
68.0177
66.3589
64.7849
24.6181
9.09241
6.28328
5.42457
5.14291
5.11332
5.22373
5.42575
5.69541
6.01976
6.39159
6.80702
7.26428
7.76312
8.30435
8.88958
9.52106
10.2017
10.9349
11.7245
12.5747
13.4897
14.4741
15.5328
16.6704
17.8918
19.202
20.6061
22.1079
23.7102
25.4174
27.2333
29.1613
31.2041
33.3642
35.6435
38.0436
40.5652
43.2088
45.9742
48.8608
51.8672
54.9918
58.2321
61.5855
65.0485
68.6175
72.2881
76.0559
79.9158
83.8624
87.8901
91.9929
96.1648
100.399
104.69
109.03
113.414
117.832
122.278
126.747
131.23
135.723
140.218
144.71
149.193
153.662
158.11
162.507
166.846
171.12
175.324
179.452
183.497
187.455
191.32
195.087
198.752
202.31
205.758
209.09
212.304
215.396
218.362
221.2
223.906
226.479
228.915
231.213
233.371
235.388
237.261
238.99
240.574
242.012
243.304
244.448
245.445
246.295
246.997
247.552
247.961
248.224
248.341
248.315
248.146
247.836
247.386
246.798
246.073
245.214
244.223
243.103
241.855
240.483
238.989
237.376
235.648
233.808
231.858
229.804
227.648
225.395
223.048
220.611
218.089
215.486
212.806
210.054
207.234
204.351
201.409
198.414
195.369
192.28
189.15
185.985
182.79
179.568
176.324
173.063
169.79
166.507
163.22
159.933
156.649
153.373
150.108
146.858
143.626
140.416
137.229
134.07
130.941
127.844
124.781
121.756
118.769
115.823
112.921
110.062
107.25
104.485
101.769
99.104
96.4903
93.9297
91.4237
88.9737
86.5815
84.249
81.9786
79.7727
77.6345
75.5673
73.5748
71.6604
69.8269
68.0725
66.4031
23.96
8.89064
6.12561
5.27108
4.9849
4.94922
5.05472
5.25454
5.52579
5.85647
6.24023
6.67405
7.15711
7.69014
8.2752
8.91473
9.61117
10.3687
11.1917
12.0851
13.054
14.1037
15.2396
16.467
17.7914
19.2181
20.752
22.398
24.1602
26.0421
28.0472
30.1784
32.4382
34.8285
37.3503
40.0044
42.7908
45.7088
48.7572
51.9342
55.2374
58.6638
62.21
65.8722
69.6458
73.5261
77.5079
81.5858
85.7537
90.0057
94.3353
98.736
103.201
107.724
112.297
116.914
121.568
126.251
130.958
135.68
140.411
145.145
149.877
154.6
159.31
164.001
168.665
173.269
177.808
182.274
186.663
190.969
195.186
199.309
203.333
207.254
211.066
214.766
218.349
221.811
225.15
228.361
231.442
234.389
237.2
239.871
242.402
244.789
247.03
249.125
251.072
252.869
254.516
256.011
257.354
258.544
259.582
260.466
261.197
261.776
262.202
262.476
262.599
262.572
262.396
262.072
261.603
260.988
260.232
259.335
258.299
257.128
255.822
254.387
252.823
251.135
249.325
247.396
245.353
243.199
240.938
238.573
236.109
233.55
230.901
228.165
225.348
222.453
219.487
216.452
213.355
210.2
206.991
203.735
200.435
197.097
193.724
190.323
186.898
183.453
179.993
176.522
173.046
169.567
166.091
162.621
159.162
155.717
152.29
148.884
145.502
142.149
138.825
135.535
132.28
129.064
125.888
122.754
119.665
116.621
113.626
110.68
107.786
104.943
102.154
99.4203
96.7428
94.1229
91.5623
89.0626
86.6255
84.2533
81.9484
79.7136
77.5518
75.4662
73.4595
71.5342
69.688
67.9276
23.0296
8.69058
5.97741
5.13501
4.85526
4.82695
4.9439
5.16139
5.45833
5.82437
6.25477
6.74812
7.30514
7.92807
8.62027
9.38577
10.2292
11.1557
12.171
13.2809
14.4913
15.8081
17.2369
18.7831
20.4517
22.2472
24.1737
26.2345
28.4321
30.7685
33.245
35.862
38.6196
41.5169
44.5525
47.7243
51.0298
54.4657
58.0283
61.7134
65.5165
69.4326
73.4565
77.5826
81.8051
86.1179
90.5148
94.9895
99.5354
104.146
108.814
113.534
118.298
123.1
127.933
132.791
137.666
142.553
147.446
152.338
157.223
162.098
166.956
171.794
176.608
181.382
186.086
190.717
195.268
199.736
204.114
208.399
212.585
216.668
220.643
224.507
228.255
231.883
235.389
238.767
242.016
245.132
248.112
250.954
253.655
256.212
258.625
260.889
263.005
264.97
266.784
268.444
269.951
271.302
272.498
273.539
274.423
275.15
275.722
276.138
276.398
276.504
276.455
276.254
275.901
275.397
274.745
273.946
273.001
271.914
270.686
269.32
267.818
266.183
264.419
262.529
260.515
258.382
256.132
253.771
251.302
248.729
246.056
243.288
240.43
237.486
234.46
231.358
228.184
224.943
221.641
218.283
214.872
211.416
207.917
204.382
200.816
197.223
193.608
189.975
186.331
182.678
179.022
175.367
171.718
168.078
164.451
160.841
157.252
153.688
150.151
146.645
143.172
139.736
136.338
132.982
129.67
126.403
123.184
120.013
116.894
113.828
110.815
107.857
104.956
102.113
99.3293
96.6057
93.9441
91.3458
88.8128
86.347
83.9507
81.6263
79.3766
77.2042
75.1116
73.1006
71.1691
69.3245
21.9114
8.44495
5.83726
5.03064
4.77824
4.78129
4.93881
5.20967
5.57583
6.0299
6.57006
7.1978
7.91665
8.7315
9.64811
10.6727
11.8116
13.0712
14.4577
15.9768
17.6336
19.4325
21.377
23.4697
25.7125
28.1061
30.6504
33.3443
36.1862
39.1735
42.3028
45.5706
48.9726
52.5041
56.1601
59.9354
63.8244
67.8216
71.9212
76.1172
80.4037
84.7749
89.2246
93.7469
98.3359
102.985
107.69
112.443
117.239
122.072
126.937
131.827
136.737
141.661
146.594
151.531
156.466
161.394
166.311
171.212
176.094
180.952
185.783
190.587
195.335
200.008
204.602
209.113
213.537
217.869
222.106
226.244
230.277
234.204
238.019
241.719
245.3
248.76
252.094
255.3
258.375
261.316
264.12
266.785
269.308
271.687
273.921