/*--------------------------------*- C++ -*----------------------------------*\
| =========                 |                                                 |
| \\      /  F ield         | OpenFOAM: The Open Source CFD Toolbox           |
|  \\    /   O peration     | Version:  2412                                  |
|   \\  /    A nd           | Website:  www.openfoam.com                      |
|    \\/     M anipulation  |                                                 |
\*---------------------------------------------------------------------------*/
FoamFile
{
    version     2.0;
    format      ascii;
    arch        "LSB;label=32;scalar=64";
    class       volScalarField;
    location    "0.24";
    object      k;
}
// * * * * * * * * * * * * * * * * * * * * * * * * * * * * * * * * * * * * * //

dimensions      [0 2 -2 0 0 0 0];

internalField   nonuniform List<scalar> 
12225
(
0.316793
0.394494
0.477907
0.542616
0.593832
0.634379
0.666734
0.69279
0.713892
0.731054
0.745059
0.756497
0.765822
0.773374
0.77941
0.784064
0.787452
0.790418
0.569139
0.788915
0.952583
1.068
1.1512
1.2127
1.25818
1.29171
1.31632
1.33413
1.34672
1.35527
1.36068
1.36365
1.36474
1.3643
1.36353
1.36145
0.670061
0.972154
1.18323
1.33202
1.43945
1.51861
1.57693
1.61969
1.65078
1.67303
1.68851
1.6988
1.70509
1.70832
1.70924
1.70845
1.70696
1.70494
0.722108
1.07674
1.32651
1.50447
1.63403
1.72972
1.80042
1.85243
1.89038
1.91766
1.93679
1.94967
1.95776
1.9622
1.96394
1.96375
1.96264
1.96117
0.74277
1.1292
1.41224
1.61818
1.77022
1.88337
1.96762
2.03016
2.07624
2.10979
2.13375
2.15033
2.16127
2.16791
2.17137
2.1726
2.17261
2.17208
0.739913
1.13776
1.44637
1.67819
1.85303
1.98504
2.08466
2.15963
2.21576
2.2574
2.28789
2.30975
2.32498
2.33514
2.34152
2.34521
2.34721
2.34819
0.719619
1.1088
1.43132
1.68401
1.88027
2.03176
2.14826
2.23764
2.30592
2.35778
2.39684
2.42592
2.44723
2.46257
2.47336
2.48081
2.48593
2.48929
0.68764
1.05045
1.37182
1.63646
1.84971
2.01922
2.1529
2.25789
2.34005
2.40409
2.45377
2.49209
2.52145
2.54379
2.56069
2.57344
2.58305
2.58998
0.648984
0.972373
1.27661
1.54078
1.76291
1.94589
2.09468
2.21482
2.31141
2.3888
2.45062
2.49988
2.53905
2.57017
2.59488
2.61453
2.63011
2.64197
0.607482
0.884082
1.15746
1.40738
1.62721
1.81569
1.97442
2.1067
2.21622
2.30653
2.38079
2.44178
2.49186
2.533
2.56687
2.59479
2.61772
2.63583
0.565817
0.793314
1.02683
1.25028
1.45563
1.63912
1.79961
1.938
2.05627
2.15675
2.24183
2.31373
2.37448
2.42586
2.46939
2.50631
2.53746
2.56279
0.528744
0.712089
0.905171
1.09645
1.27866
1.44746
1.6004
1.73669
1.8568
1.96183
2.05324
2.13257
2.20132
2.26093
2.31264
2.3575
2.39619
2.42837
0.49465
0.637266
0.790574
0.946974
1.10074
1.248
1.38597
1.51298
1.6284
1.73232
1.82527
1.90805
1.98158
2.04682
2.10468
2.15593
2.201
2.23926
0.460673
0.56214
0.673137
0.789666
0.907884
1.02492
1.13844
1.24664
1.34837
1.44301
1.53034
1.61045
1.68363
1.75029
1.81087
1.8658
1.9152
1.9581
0.429343
0.492744
0.562792
0.638282
0.717338
0.798298
0.879665
0.960088
1.03847
1.11399
1.18611
1.25447
1.31889
1.37933
1.43583
1.48842
1.53696
1.58025
0.403167
0.435381
0.470972
0.510046
0.552179
0.596842
0.643456
0.691381
0.73997
0.788643
0.836906
0.884349
0.930646
0.975544
1.01885
1.06039
1.09988
1.13625
0.384082
0.394607
0.406479
0.419889
0.43484
0.451292
0.469184
0.488403
0.50879
0.530162
0.552324
0.57508
0.598238
0.621588
0.644948
0.668156
0.691006
0.712959
0.374047
0.373709
0.374088
0.375205
0.377035
0.379558
0.382759
0.386626
0.391136
0.39626
0.401962
0.408205
0.414944
0.422152
0.429787
0.437794
0.446104
0.454609
0.376606
0.378925
0.38199
0.385853
0.390486
0.395855
0.401924
0.408649
0.415971
0.423824
0.432137
0.440839
0.44986
0.45913
0.468587
0.478166
0.487795
0.497254
0.394948
0.417782
0.44296
0.470561
0.500303
0.531826
0.564739
0.59861
0.632992
0.667467
0.701667
0.735284
0.768064
0.799809
0.83037
0.85964
0.887494
0.913527
0.427772
0.489069
0.556235
0.628021
0.702591
0.778301
0.85372
0.927588
0.998897
1.06692
1.13118
1.19141
1.24749
1.29943
1.34733
1.39134
1.43162
1.4682
0.475742
0.594977
0.723616
0.855989
0.98721
1.11395
1.23384
1.34526
1.44738
1.54
1.62332
1.6978
1.76406
1.82276
1.87463
1.92033
1.9605
1.99564
0.536848
0.728699
0.928633
1.12374
1.30644
1.47305
1.62185
1.75259
1.86614
1.96397
2.04774
2.11914
2.17976
2.23106
2.27435
2.31076
2.34128
2.36673
0.604143
0.873972
1.14017
1.3824
1.59449
1.77607
1.92885
2.05587
2.16066
2.24663
2.31682
2.37385
2.41996
2.45701
2.48656
2.50991
2.52811
2.54212
0.668316
1.00767
1.31643
1.57533
1.78711
1.95803
2.09449
2.20267
2.28802
2.355
2.40721
2.44758
2.47841
2.50158
2.51858
2.5306
2.53862
2.54351
0.717304
1.0992
1.41419
1.65889
1.84812
1.99399
2.10592
2.19145
2.2565
2.30558
2.34217
2.36896
2.38806
2.40109
2.40934
2.41381
2.41532
2.41459
0.735719
1.11862
1.40734
1.61983
1.77772
1.89573
1.98396
2.04967
2.09826
2.13377
2.15921
2.17688
2.18853
2.19548
2.19879
2.19926
2.19754
2.19421
0.7082
1.04716
1.29075
1.46557
1.59175
1.68427
1.75245
1.80244
1.83877
1.86478
1.88294
1.89507
1.90255
1.90646
1.90759
1.90658
1.90394
1.90013
0.616922
0.862574
1.0489
1.18265
1.27674
1.3449
1.39483
1.43126
1.45766
1.47655
1.48973
1.49854
1.50398
1.50683
1.50767
1.50696
1.50507
1.50238
0.33327
0.408788
0.496175
0.56409
0.616602
0.657436
0.689395
0.714702
0.734936
0.751222
0.76441
0.775143
0.783918
0.791115
0.797035
0.801916
0.805933
0.809264
0.00683215
0.0110017
0.0142161
0.0167657
0.0187473
0.0203657
0.0220841
0.0239735
0.0259571
0.0280467
0.030282
0.0327615
0.0358091
0.0394978
0.0435569
0.0479371
0.0526271
0.0576333
0.0629614
0.0686105
0.0745718
0.0808301
0.087366
0.0941585
0.101187
0.108435
0.11589
0.123548
0.131414
0.139507
0.147861
0.156413
0.165077
0.173837
0.182678
0.191592
0.200568
0.2096
0.218679
0.227801
0.236959
0.246149
0.255367
0.264609
0.27387
0.283145
0.292432
0.301725
0.31102
0.320313
0.329597
0.338869
0.348123
0.357352
0.366552
0.375716
0.384838
0.393911
0.40293
0.411888
0.420777
0.429591
0.438325
0.44697
0.45552
0.463969
0.47231
0.480538
0.488646
0.49663
0.504488
0.512222
0.519837
0.527351
0.534801
0.54213
0.549271
0.556232
0.563013
0.569614
0.57603
0.582256
0.588289
0.594123
0.599753
0.605177
0.610389
0.615385
0.620163
0.624718
0.629048
0.633149
0.63702
0.640656
0.644057
0.64722
0.650143
0.652825
0.655264
0.657459
0.659409
0.661113
0.662571
0.663782
0.664745
0.665461
0.66593
0.666153
0.666128
0.665859
0.665344
0.664585
0.663584
0.662342
0.66086
0.659141
0.657187
0.654999
0.652582
0.649936
0.647066
0.643975
0.640666
0.637144
0.633411
0.629473
0.625334
0.620999
0.616472
0.611759
0.606866
0.601798
0.596562
0.591162
0.585606
0.5799
0.574052
0.568069
0.561951
0.555725
0.549375
0.542943
0.536477
0.530289
0.526049
0.522447
0.518807
0.51508
0.511267
0.50737
0.503396
0.499349
0.495235
0.49106
0.486829
0.482548
0.478223
0.473858
0.469461
0.465037
0.46059
0.456127
0.451653
0.447171
0.442688
0.438207
0.433732
0.429264
0.424805
0.420354
0.415908
0.411457
0.406987
0.402471
0.39786
0.393061
0.387869
0.381766
0.373861
0.363207
0.014577
0.0229537
0.0305753
0.0368257
0.0424956
0.0481876
0.0538387
0.0596516
0.0657613
0.0723097
0.0793245
0.0867815
0.094647
0.10287
0.111394
0.120191
0.129254
0.138589
0.148208
0.158123
0.16835
0.178899
0.189784
0.201012
0.212592
0.224528
0.23682
0.249466
0.26246
0.275791
0.289444
0.303396
0.317627
0.332122
0.346865
0.361841
0.377037
0.392437
0.408029
0.423802
0.439744
0.455845
0.472095
0.488485
0.505007
0.521651
0.53841
0.555275
0.572237
0.589287
0.606416
0.623615
0.640874
0.658181
0.675527
0.6929
0.710289
0.727682
0.745066
0.762429
0.779759
0.797042
0.814266
0.831417
0.848483
0.865451
0.882307
0.89904
0.915635
0.932082
0.948366
0.964477
0.980401
0.996125
1.01156
1.02664
1.04146
1.05601
1.0703
1.08431
1.09805
1.11149
1.12462
1.13745
1.14995
1.16211
1.17393
1.1854
1.19651
1.20725
1.21761
1.22759
1.23717
1.24635
1.25513
1.26349
1.27144
1.27896
1.28606
1.29272
1.29895
1.30473
1.31008
1.31497
1.31941
1.3234
1.32693
1.33001
1.33263
1.33478
1.33648
1.33771
1.33849
1.3388
1.33864
1.33803
1.33696
1.33543
1.33345
1.33102
1.32814
1.32481
1.32104
1.31683
1.31219
1.30713
1.30165
1.29575
1.28945
1.28275
1.27565
1.26818
1.26033
1.25212
1.24356
1.23466
1.22542
1.21587
1.20599
1.19584
1.18537
1.17466
1.1638
1.15282
1.142
1.13115
1.12013
1.10894
1.09758
1.08607
1.07441
1.06262
1.05072
1.03871
1.02661
1.01444
1.00221
0.98992
0.977595
0.965245
0.952881
0.940514
0.928157
0.91582
0.903512
0.891245
0.879025
0.866862
0.854761
0.842726
0.83076
0.81886
0.807019
0.795223
0.783445
0.771647
0.759725
0.747562
0.733662
0.718414
0.0215893
0.0365679
0.0480767
0.0571022
0.0652745
0.0729022
0.0804834
0.0883344
0.0966258
0.105426
0.114724
0.124465
0.134584
0.145025
0.155754
0.166763
0.178068
0.1897
0.201698
0.214102
0.22695
0.240273
0.254095
0.26843
0.283284
0.298653
0.314524
0.330878
0.34769
0.364932
0.382572
0.400579
0.418923
0.437579
0.45652
0.475723
0.495169
0.514839
0.534716
0.554787
0.575037
0.595457
0.616036
0.636764
0.657633
0.678633
0.699756
0.720993
0.742335
0.763773
0.785296
0.806895
0.828557
0.850272
0.872027
0.89381
0.915606
0.937402
0.959185
0.980938
1.00265
1.0243
1.04587
1.06735
1.08873
1.10999
1.13111
1.15207
1.17287
1.19349
1.21391
1.23412
1.25411
1.27387
1.29329
1.3124
1.33119
1.34966
1.3678
1.3856
1.40304
1.42011
1.43679
1.45308
1.46895
1.4844
1.49941
1.51397
1.52807
1.5417
1.55485
1.56751
1.57966
1.5913
1.60243
1.61303
1.62309
1.63262
1.6416
1.65002
1.65789
1.66519
1.67193
1.67809
1.68368
1.68869
1.69312
1.69697
1.70023
1.7029
1.70499
1.70648
1.70739
1.70771
1.70744
1.70659
1.70515
1.70313
1.70053
1.69736
1.69361
1.6893
1.68443
1.67901
1.67303
1.66652
1.65947
1.6519
1.64381
1.63522
1.62612
1.61655
1.6065
1.59599
1.58504
1.57365
1.56184
1.54963
1.53698
1.52404
1.51076
1.49718
1.48334
1.4693
1.45517
1.44091
1.42644
1.41176
1.39687
1.38179
1.36654
1.35113
1.33558
1.3199
1.30412
1.28825
1.2723
1.2563
1.24025
1.22418
1.20809
1.19201
1.17594
1.15991
1.14392
1.12799
1.11213
1.09635
1.08066
1.06507
1.04959
1.03422
1.01895
1.00381
0.988769
0.973845
0.959022
0.944341
0.929351
0.913816
0.0278139
0.0508751
0.065713
0.0769699
0.0865685
0.0955523
0.104459
0.113605
0.123165
0.13321
0.143741
0.154718
0.166094
0.177837
0.189935
0.202402
0.215272
0.228587
0.242395
0.25674
0.271656
0.287169
0.303291
0.320023
0.337357
0.355273
0.373747
0.392746
0.412238
0.432187
0.452557
0.473317
0.494434
0.515881
0.537634
0.55967
0.58197
0.604517
0.627295
0.650293
0.673498
0.696899
0.720488
0.744255
0.768192
0.792289
0.816538
0.84093
0.865454
0.890101
0.914859
0.939716
0.964661
0.989678
1.01476
1.03988
1.06503
1.09019
1.11535
1.14049
1.16559
1.19063
1.21559
1.24046
1.26522
1.28984
1.31432
1.33863
1.36275
1.38667
1.41037
1.43384
1.45705
1.47998
1.50255
1.52478
1.54665
1.56815
1.58926
1.60996
1.63025
1.6501
1.6695
1.68843
1.70687
1.72482
1.74224
1.75914
1.7755
1.7913
1.80654
1.82119
1.83526
1.84872
1.86158
1.87381
1.88542
1.89639
1.90672
1.9164
1.92543
1.93379
1.94149
1.94852
1.95487
1.96054
1.96554
1.96985
1.97348
1.97642
1.97867
1.98023
1.98111
1.9813
1.98081
1.97963
1.97777
1.97524
1.97203
1.96815
1.96361
1.95841
1.95256
1.94607
1.93894
1.93118
1.92281
1.91382
1.90424
1.89408
1.88334
1.87204
1.8602
1.84781
1.83493
1.82152
1.80764
1.79334
1.77859
1.76345
1.74794
1.73207
1.71588
1.69944
1.6828
1.66594
1.64886
1.63154
1.61399
1.59622
1.57826
1.56013
1.54184
1.52341
1.50487
1.48623
1.46751
1.44873
1.4299
1.41106
1.3922
1.37336
1.35455
1.33577
1.31706
1.29843
1.27988
1.26144
1.24311
1.22491
1.20686
1.18896
1.17122
1.15367
1.13632
1.11921
1.10241
1.08605
1.07006
1.05442
0.0328953
0.0640848
0.0819508
0.0948574
0.10578
0.11587
0.125731
0.135718
0.146037
0.156792
0.168019
0.179716
0.191871
0.204476
0.217541
0.231092
0.245165
0.2598
0.275037
0.29091
0.30744
0.32464
0.342508
0.361036
0.380204
0.399987
0.420355
0.441274
0.462711
0.484631
0.507002
0.529793
0.552976
0.576527
0.600422
0.624642
0.64917
0.673989
0.699086
0.724448
0.750066
0.775928
0.802025
0.828347
0.854886
0.88163
0.908572
0.935699
0.963002
0.990467
1.01808
1.04583
1.07371
1.10168
1.12975
1.15789
1.18608
1.21431
1.24255
1.27078
1.29899
1.32715
1.35523
1.38323
1.4111
1.43885
1.46643
1.49383
1.52103
1.54801
1.57474
1.60121
1.6274
1.65324
1.6787
1.70377
1.72844
1.75269
1.77649
1.79984
1.8227
1.84507
1.86692
1.88823
1.90899
1.92917
1.94877
1.96776
1.98614
2.00387
2.02096
2.03739
2.05315
2.06822
2.0826
2.09627
2.10922
2.12145
2.13295
2.14371
2.15373
2.16299
2.1715
2.17925
2.18623
2.19244
2.19789
2.20255
2.20645
2.20956
2.2119
2.21346
2.21425
2.21426
2.2135
2.21197
2.20968
2.20662
2.2028
2.19823
2.19292
2.18687
2.18008
2.17258
2.16436
2.15544
2.14582
2.13553
2.12457
2.11296
2.1007
2.08783
2.07435
2.06025
2.04562
2.03044
2.01475
1.99857
1.98191
1.9648
1.94728
1.92936
1.91108
1.89249
1.87362
1.8545
1.83511
1.81546
1.79557
1.77545
1.75512
1.7346
1.71391
1.69308
1.67212
1.65107
1.62993
1.60873
1.5875
1.56624
1.54499
1.52375
1.50256
1.48142
1.46036
1.43939
1.41852
1.39779
1.3772
1.35677
1.33652
1.31647
1.29664
1.27706
1.25777
1.23885
1.22041
1.20262
1.18558
1.1694
0.0373351
0.0751517
0.0955158
0.110075
0.12222
0.133258
0.143872
0.154469
0.165301
0.176513
0.188185
0.200357
0.21305
0.22628
0.240071
0.25445
0.269451
0.285105
0.301439
0.318475
0.336222
0.354682
0.373847
0.393701
0.414223
0.435386
0.457163
0.479521
0.502432
0.525866
0.549793
0.574188
0.599027
0.624286
0.649948
0.675994
0.702407
0.729175
0.756283
0.783721
0.811476
0.839539
0.867899
0.896547
0.92547
0.954659
0.984102
1.01379
1.0437
1.07383
1.10415
1.13466
1.16533
1.19615
1.2271
1.25815
1.28929
1.32049
1.35173
1.38298
1.41421
1.44542
1.47655
1.5076
1.53854
1.56933
1.59996
1.63039
1.6606
1.69057
1.72027
1.74967
1.77875
1.80743
1.8357
1.86353
1.89091
1.91781
1.94422
1.9701
1.99545
2.02024
2.04444
2.06804
2.09101
2.11334
2.13501
2.156
2.17629
2.19587
2.21471
2.23282
2.25017
2.26676
2.28256
2.29757
2.31178
2.32518
2.33777
2.34952
2.36045
2.37053
2.37977
2.38817
2.39571
2.40239
2.40822
2.41318
2.41728
2.42052
2.4229
2.42442
2.42507
2.42487
2.42381
2.4219
2.41914
2.41554
2.41111
2.40584
2.39975
2.39285
2.38514
2.37664
2.36736
2.3573
2.34648
2.33491
2.32262
2.30962
2.29588
2.2815
2.26647
2.2508
2.23452
2.21766
2.20024
2.18227
2.1638
2.14483
2.1254
2.10555
2.08529
2.06468
2.04374
2.0225
2.00097
1.97916
1.95709
1.93477
1.91224
1.8895
1.86659
1.84353
1.82035
1.79706
1.77369
1.75026
1.7268
1.70333
1.67986
1.65642
1.63304
1.60973
1.58651
1.56339
1.54042
1.51759
1.49493
1.47247
1.45022
1.42822
1.40649
1.38508
1.36405
1.3435
1.32355
1.30441
1.28621
1.26911
0.0437597
0.0841894
0.106477
0.122385
0.135558
0.147399
0.158648
0.169749
0.180991
0.19256
0.204573
0.217106
0.230206
0.243911
0.258252
0.273257
0.288954
0.305367
0.322513
0.340403
0.35904
0.37842
0.398532
0.419359
0.440883
0.46308
0.485924
0.509392
0.533456
0.558094
0.583282
0.608998
0.635222
0.661935
0.68912
0.716762
0.744846
0.77336
0.802291
0.831628
0.861359
0.891472
0.921958
0.952804
0.983998
1.01553
1.04738
1.07954
1.11199
1.14472
1.1777
1.21092
1.24436
1.27799
1.31179
1.34574
1.3798
1.41396
1.44819
1.48245
1.51672
1.55097
1.58516
1.61927
1.65326
1.68711
1.72078
1.75424
1.78746
1.82042
1.85307
1.8854
1.91735
1.94886
1.97991
2.01048
2.04054
2.07007
2.09905
2.12744
2.15523
2.1824
2.20891
2.23475
2.2599
2.28432
2.30801
2.33094
2.3531
2.37446
2.39501
2.41474
2.43363
2.45166
2.46884
2.48513
2.50055
2.51506
2.52867
2.54137
2.55315
2.564
2.57392
2.5829
2.59095
2.59806
2.60422
2.60943
2.6137
2.61702
2.6194
2.62083
2.62132
2.62087
2.61948
2.61717
2.61392
2.60976
2.60469
2.59871
2.59183
2.58408
2.57544
2.56593
2.55559
2.5444
2.53239
2.51955
2.50595
2.49159
2.47646
2.46063
2.44409
2.42687
2.40899
2.39049
2.37138
2.35169
2.33145
2.31068
2.28942
2.26769
2.24553
2.22297
2.20005
2.1768
2.15322
2.12935
2.1052
2.08079
2.05616
2.03131
2.00629
1.98111
1.95581
1.9304
1.90491
1.87937
1.85381
1.82823
1.80268
1.77716
1.75171
1.72635
1.70109
1.67596
1.65099
1.6262
1.6016
1.57723
1.55311
1.52928
1.50578
1.48266
1.46
1.43791
1.41652
1.39604
1.37658
1.35826
0.0494473
0.0910645
0.114763
0.131722
0.14573
0.158252
0.170055
0.181609
0.193226
0.205117
0.21743
0.230266
0.243694
0.257765
0.272518
0.287983
0.304184
0.32114
0.338862
0.357356
0.376624
0.396659
0.417451
0.438988
0.461253
0.484227
0.507893
0.53223
0.557219
0.582842
0.609081
0.635918
0.663338
0.691325
0.719866
0.748948
0.778557
0.808683
0.839313
0.870435
0.902039
0.934113
0.966643
0.999618
1.03302
1.06684
1.10106
1.13566
1.17063
1.20594
1.24157
1.2775
1.3137
1.35014
1.38681
1.42367
1.46069
1.49783
1.53507
1.57236
1.60969
1.647
1.68427
1.72146
1.75854
1.79546
1.83219
1.86869
1.90494
1.94089
1.97651
2.01177
2.04659
2.08092
2.11474
2.14803
2.18075
2.21289
2.24441
2.27529
2.3055
2.33501
2.36381
2.39185
2.41912
2.4456
2.47126
2.49609
2.52006
2.54316
2.56536
2.58666
2.60704
2.62648
2.64497
2.6625
2.67906
2.69463
2.70922
2.7228
2.73538
2.74695
2.7575
2.76703
2.77554
2.78302
2.78947
2.79489
2.79929
2.80265
2.80499
2.8063
2.80658
2.80585
2.80411
2.80136
2.79761
2.79286
2.78712
2.78041
2.77274
2.76411
2.75454
2.74402
2.7326
2.7203
2.70711
2.69306
2.67817
2.66247
2.64597
2.6287
2.61068
2.59193
2.57249
2.55238
2.53162
2.51024
2.48828
2.46575
2.4427
2.41915
2.39514
2.37069
2.34586
2.32065
2.29511
2.26925
2.2431
2.21669
2.19003
2.16316
2.13611
2.1089
2.08157
2.05413
2.02662
1.99905
1.97147
1.94389
1.91634
1.88884
1.86141
1.83409
1.8069
1.77985
1.75298
1.72631
1.69986
1.67368
1.64778
1.62222
1.59703
1.57229
1.54807
1.5245
1.5017
1.47987
1.45908
1.43943
0.0541928
0.0958733
0.120514
0.138241
0.1529
0.165984
0.178272
0.190239
0.202209
0.214408
0.227
0.240102
0.253799
0.268152
0.283207
0.298996
0.315544
0.332867
0.350978
0.369881
0.389578
0.410065
0.431337
0.453384
0.476195
0.49976
0.524066
0.549099
0.574847
0.601297
0.628436
0.656254
0.684737
0.713876
0.743659
0.774075
0.805113
0.836764
0.869015
0.901856
0.935275
0.969258
1.00379
1.03886
1.07445
1.11055
1.14713
1.18417
1.22165
1.25955
1.29784
1.33649
1.37548
1.41477
1.45433
1.49412
1.53411
1.57427
1.61454
1.6549
1.6953
1.73571
1.77607
1.81636
1.85653
1.89653
1.93633
1.97588
2.01515
2.05409
2.09267
2.13084
2.16851
2.20564
2.2422
2.27818
2.31354
2.34825
2.38227
2.41559
2.44816
2.47997
2.51099
2.54118
2.57053
2.599
2.62658
2.65324
2.67896
2.70373
2.72753
2.75033
2.77213
2.7929
2.81265
2.83135
2.84899
2.86557
2.88107
2.89548
2.9088
2.92103
2.93215
2.94217
2.95109
2.95889
2.96559
2.97117
2.97564
2.97901
2.98126
2.98241
2.98246
2.98142
2.97928
2.97607
2.97178
2.96643
2.96001
2.95255
2.94406
2.93455
2.92404
2.91254
2.90007
2.88665
2.8723
2.85704
2.84088
2.82386
2.806
2.78731
2.76784
2.74759
2.72661
2.70492
2.68255
2.65952
2.63588
2.61164
2.58684
2.56152
2.53571
2.50944
2.48275
2.45567
2.42822
2.40045
2.37238
2.34402
2.31543
2.28661
2.25761
2.22845
2.19916
2.16978
2.14032
2.11082
2.0813
2.0518
2.02233
1.99293
1.96362
1.93443
1.90538
1.87649
1.84781
1.81935
1.79114
1.76322
1.73563
1.7084
1.68161
1.6553
1.62959
1.60457
1.58039
1.55719
1.53504
1.51399
0.0579876
0.0988336
0.124003
0.142244
0.157377
0.170902
0.183595
0.195928
0.208223
0.220709
0.233556
0.246891
0.260807
0.275372
0.290639
0.306645
0.323416
0.340972
0.359327
0.37849
0.398464
0.419253
0.440855
0.463268
0.486488
0.510509
0.535328
0.560937
0.587331
0.614503
0.642446
0.671153
0.700619
0.730834
0.761792
0.793484
0.825901
0.859034
0.892873
0.927406
0.96262
0.998501
1.03503
1.0722
1.10999
1.14837
1.18732
1.22682
1.26684
1.30736
1.34833
1.38974
1.43154
1.47369
1.51617
1.55892
1.60191
1.64509
1.68842
1.73185
1.77534
1.81883
1.86229
1.90566
1.94891
1.99197
2.03481
2.07738
2.11964
2.16154
2.20305
2.24406
2.28451
2.32438
2.36363
2.40223
2.44014
2.47734
2.51379
2.54946
2.58433
2.61835
2.6515
2.68375
2.71508
2.74546
2.77486
2.80326
2.83065
2.85699
2.88229
2.9065
2.92963
2.95166
2.97258
2.99236
3.01101
3.02851
3.04484
3.06001
3.074
3.08681
3.09844
3.10889
3.11815
3.12622
3.1331
3.13879
3.14329
3.1466
3.14873
3.14968
3.14946
3.14806
3.1455
3.1418
3.13695
3.13097
3.12386
3.11565
3.10635
3.09597
3.08453
3.07204
3.05853
3.04401
3.02851
3.01204
2.99464
2.97632
2.95712
2.93705
2.91615
2.89444
2.87195
2.84872
2.82478
2.80015
2.77487
2.74897
2.72248
2.69545
2.66789
2.63986
2.61138
2.5825
2.55323
2.52362
2.4937
2.46349
2.43303
2.40236
2.37149
2.34046
2.30931
2.27806
2.24674
2.21539
2.18403
2.15269
2.12139
2.09018
2.05907
2.02809
1.99726
1.96663
1.93621
1.90604
1.87615
1.84658
1.81736
1.78856
1.76022
1.73242
1.70525
1.67883
1.65327
1.62871
1.60518
1.58272
0.0608642
0.1002
0.125557
0.144087
0.159532
0.173379
0.18639
0.199027
0.211602
0.22434
0.237411
0.250941
0.26503
0.27975
0.295159
0.311299
0.328201
0.345891
0.364388
0.383705
0.403853
0.424841
0.446675
0.469361
0.492901
0.5173
0.542558
0.568677
0.595658
0.6235
0.652203
0.681765
0.712183
0.743454
0.775573
0.808534
0.84233
0.876953
0.912391
0.948634
0.985667
1.02347
1.06204
1.10134
1.14135
1.18206
1.22342
1.26542
1.30802
1.35118
1.39488
1.43907
1.4837
1.52875
1.57415
1.61987
1.66586
1.71206
1.75843
1.80491
1.85145
1.898
1.9445
1.99091
2.03717
2.08323
2.12904
2.17455
2.21971
2.26448
2.3088
2.35254
2.39567
2.43816
2.47997
2.52106
2.56141
2.60097
2.63972
2.67761
2.71462
2.75072
2.78588
2.82006
2.85323
2.88538
2.91647
2.94648
2.97539
3.00319
3.02985
3.05536
3.07971
3.10287
3.12484
3.1456
3.16515
3.18346
3.20053
3.21635
3.23092
3.24424
3.25629
3.26708
3.27661
3.28487
3.29188
3.29761
3.30208
3.30528
3.30724
3.30794
3.3074
3.30563
3.30263
3.29841
3.29299
3.28637
3.27857
3.2696
3.25949
3.24824
3.23587
3.2224
3.20786
3.19226
3.17563
3.15799
3.13936
3.11978
3.09927
3.07785
3.05557
3.03244
3.0085
2.98378
2.95832
2.93215
2.90529
2.87779
2.84968
2.821
2.79178
2.76206
2.73188
2.70127
2.67027
2.63891
2.60723
2.57526
2.54303
2.51058
2.47794
2.44514
2.41222
2.3792
2.34613
2.31302
2.27991
2.24682
2.2138
2.18087
2.14805
2.11537
2.08288
2.05058
2.01852
1.98673
1.95524
1.9241
1.89334
1.86302
1.83321
1.80398
1.77541
1.74762
1.72072
1.69481
1.66991
1.64606
0.062869
0.100227
0.125501
0.144139
0.159752
0.173806
0.187044
0.199913
0.212712
0.225657
0.23891
0.252598
0.266818
0.281648
0.297149
0.313368
0.330344
0.348109
0.366687
0.3861
0.406368
0.427506
0.44953
0.472453
0.496286
0.521041
0.546728
0.573355
0.600928
0.629455
0.65894
0.689386
0.720794
0.753165
0.786495
0.820782
0.856019
0.892197
0.929304
0.967329
1.00625
1.04606
1.08673
1.12823
1.17054
1.21363
1.25747
1.30202
1.34724
1.3931
1.43954
1.48653
1.53401
1.58194
1.63026
1.67892
1.72787
1.77705
1.82639
1.87585
1.92536
1.97487
2.02431
2.07364
2.12279
2.17171
2.22035
2.26865
2.31657
2.36405
2.41096
2.45725
2.50288
2.54779
2.59197
2.63537
2.67795
2.71967
2.76051
2.80043
2.83939
2.87737
2.91434
2.95025
2.98509
3.01881
3.0514
3.08285
3.11311
3.14219
3.17006
3.19669
3.22209
3.24623
3.26911
3.2907
3.31102
3.33003
3.34771
3.36407
3.3791
3.3928
3.40518
3.41622
3.42592
3.4343
3.44134
3.44705
3.45142
3.45448
3.45621
3.45663
3.45574
3.45356
3.45008
3.44534
3.43933
3.43206
3.42356
3.41384
3.40291
3.3908
3.37752
3.36309
3.34754
3.33089
3.31316
3.29438
3.27457
3.25377
3.232
3.20929
3.18567
3.16118
3.13585
3.10972
3.08281
3.05516
3.02681
2.99779
2.96814
2.9379
2.9071
2.87579
2.84399
2.81176
2.77913
2.74613
2.7128
2.67917
2.64528
2.61117
2.57687
2.54241
2.50782
2.47315
2.43842
2.40366
2.36891
2.3342
2.29956
2.26501
2.23059
2.19633
2.16226
2.1284
2.0948
2.06149
2.0285
1.99587
1.96366
1.93192
1.9007
1.8701
1.84019
1.81108
1.78287
1.75565
1.72941
1.7042
0.0640489
0.0991482
0.124136
0.142739
0.158404
0.172564
0.185943
0.198971
0.211933
0.225034
0.238429
0.25224
0.266563
0.281478
0.297049
0.313328
0.330362
0.348189
0.366843
0.386354
0.40675
0.428057
0.450298
0.473496
0.497671
0.522843
0.549029
0.576245
0.604504
0.633817
0.664194
0.695641
0.728163
0.761764
0.796441
0.832191
0.869007
0.90688
0.945796
0.985738
1.02669
1.06862
1.11151
1.15532
1.20003
1.24559
1.29198
1.33913
1.38702
1.43559
1.48479
1.53456
1.58486
1.63563
1.6868
1.73833
1.79014
1.84218
1.89438
1.94666
1.99898
2.05126
2.10345
2.15549
2.20731
2.25887
2.3101
2.36095
2.41137
2.46127
2.51052
2.55908
2.60692
2.65398
2.70024
2.74566
2.79019
2.8338
2.87645
2.91811
2.95875
2.99834
3.03687
3.07427
3.1105
3.14556
3.17941
3.21205
3.24344
3.27357
3.30243
3.32999
3.35624
3.38117
3.40476
3.42701
3.44791
3.46744
3.48558
3.50234
3.51771
3.53169
3.54427
3.55546
3.56525
3.57365
3.58065
3.58626
3.59048
3.59332
3.59478
3.59487
3.5936
3.59098
3.58701
3.58171
3.5751
3.56719
3.55798
3.54751
3.53579
3.52283
3.50866
3.4933
3.47677
3.4591
3.44032
3.42045
3.39951
3.37755
3.35458
3.33064
3.30577
3.28
3.25336
3.22588
3.19761
3.16858
3.13883
3.10839
3.07731
3.04561
3.01335
2.98055
2.94727
2.91353
2.87938
2.84486
2.81
2.77484
2.73942
2.70377
2.66793
2.63194
2.59583
2.55962
2.52337
2.4871
2.45083
2.41462
2.37847
2.34244
2.30654
2.27081
2.23528
2.19998
2.16495
2.13022
2.09584
2.06183
2.02827
1.99519
1.96266
1.93077
1.89959
1.86922
1.83975
1.81126
1.78372
1.75721
0.0644444
0.0971702
0.121729
0.140195
0.155823
0.170008
0.183454
0.196577
0.209648
0.222865
0.236373
0.250291
0.264714
0.279723
0.295384
0.311757
0.328894
0.346841
0.365641
0.385334
0.405957
0.427545
0.450132
0.473748
0.498424
0.524187
0.551063
0.579072
0.608233
0.638558
0.670059
0.702746
0.736626
0.771701
0.807969
0.845426
0.884061
0.92386
0.964805
1.00687
1.05004
1.09428
1.13954
1.18581
1.23303
1.28116
1.33015
1.37996
1.43052
1.48179
1.5337
1.58619
1.63921
1.69269
1.74657
1.80078
1.85527
1.90997
1.96477
2.01962
2.07446
2.12922
2.18384
2.23826
2.29242
2.34627
2.39974
2.45278
2.50532
2.55721
2.6084
2.65884
2.7085
2.75732
2.80528
2.85232
2.89842
2.94353
2.98763
3.03067
3.07263
3.11347
3.15318
3.1917
3.22901
3.26508
3.2999
3.33344
3.36568
3.39661
3.4262
3.45444
3.48131
3.50681
3.53092
3.55362
3.57491
3.59479
3.61322
3.63023
3.64579
3.6599
3.67257
3.68378
3.69355
3.70188
3.70875
3.71418
3.71818
3.72074
3.72187
3.72159
3.71989
3.71679
3.71231
3.70645
3.69923
3.69066
3.68076
3.66955
3.65705
3.64328
3.62825
3.612
3.59454
3.57591
3.55613
3.53523
3.51324
3.49019
3.4661
3.44103
3.41499
3.38803
3.36018
3.33147
3.30195
3.27165
3.24062
3.20888
3.17648
3.14346
3.10986
3.07571
3.04107
3.00597
2.97045
2.93455
2.89831
2.86176
2.82495
2.78792
2.75069
2.71331
2.67581
2.63823
2.6006
2.56295
2.52532
2.48774
2.45025
2.41286
2.37562
2.33856
2.30171
2.2651
2.22877
2.19275
2.15709
2.12182
2.087
2.05269
2.01895
1.98586
1.95349
1.92194
1.89128
1.86158
1.83282
1.80507
0.0640892
0.0944647
0.118503
0.136766
0.152299
0.166455
0.17992
0.193098
0.206251
0.21957
0.233197
0.247247
0.261818
0.27699
0.292838
0.309424
0.326807
0.34504
0.364176
0.384265
0.405354
0.427485
0.450702
0.475044
0.500549
0.52725
0.555182
0.584377
0.614847
0.646588
0.679621
0.713956
0.749598
0.786547
0.824796
0.864333
0.905142
0.947201
0.990484
1.03496
1.08059
1.12734
1.17517
1.22402
1.27385
1.3246
1.37622
1.42864
1.48181
1.53567
1.59015
1.64518
1.70069
1.75662
1.81291
1.86947
1.92625
1.98317
2.04015
2.09713
2.15404
2.21082
2.2674
2.32372
2.37972
2.43536
2.49056
2.54529
2.59935
2.65271
2.70531
2.75711
2.80806
2.85813
2.90728
2.95546
3.00264
3.04878
3.09386
3.13783
3.18066
3.22233
3.26281
3.30206
3.34006
3.37679
3.41221
3.44631
3.47907
3.51047
3.5405
3.56913
3.59636
3.62216
3.64654
3.66946
3.69094
3.71095
3.72949
3.74656
3.76214
3.77623
3.78884
3.79996
3.80959
3.81772
3.82438
3.82955
3.83324
3.83545
3.8362
3.83549
3.83334
3.82974
3.82472
3.81829
3.81046
3.80125
3.79067
3.77875
3.7655
3.75095
3.73512
3.71803
3.6997
3.68018
3.65948
3.63763
3.61467
3.59062
3.56553
3.53942
3.51233
3.48429
3.45535
3.42554
3.3949
3.36347
3.33129
3.2984
3.26484
3.23064
3.19586
3.16052
3.12468
3.08838
3.05165
3.01453
2.97708
2.93931
2.90129
2.86303
2.82459
2.78599
2.74728
2.70849
2.66965
2.63079
2.59196
2.55318
2.51449
2.47592
2.43749
2.39925
2.36123
2.32346
2.28597
2.2488
2.21199
2.1756
2.13966
2.10423
2.06939
2.0352
2.00173
1.96908
1.93731
1.90649
1.87658
1.84768
0.0629414
0.0910208
0.114496
0.132532
0.147954
0.162068
0.175546
0.188785
0.202047
0.215519
0.229346
0.243644
0.258515
0.274049
0.29033
0.307428
0.32539
0.344285
0.364177
0.385123
0.40718
0.430398
0.454827
0.480508
0.507484
0.535789
0.565453
0.596502
0.628948
0.662799
0.698061
0.734733
0.77281
0.81228
0.853124
0.89532
0.938836
0.98364
1.02969
1.07695
1.12536
1.17488
1.22545
1.27701
1.32951
1.38288
1.43706
1.49198
1.54758
1.60378
1.66053
1.71775
1.77537
1.83332
1.89154
1.94995
2.00849
2.06708
2.12567
2.18417
2.24252
2.30068
2.35856
2.41613
2.47331
2.53008
2.58634
2.64195
2.69684
2.75097
2.80429
2.85677
2.90837
2.95903
3.00873
3.05743
3.10509
3.15167
3.19715
3.2415
3.28467
3.32665
3.36741
3.40691
3.44514
3.48206
3.51766
3.55191
3.5848
3.6163
3.6464
3.67508
3.70233
3.72814
3.75249
3.77536
3.79676
3.81667
3.83508
3.85199
3.86739
3.88128
3.89365
3.9045
3.91384
3.92166
3.92796
3.93276
3.93604
3.93782
3.93811
3.93692
3.93424
3.9301
3.92451
3.91748
3.90902
3.89915
3.8879
3.87527
3.8613
3.846
3.82939
3.81151
3.79237
3.77201
3.75045
3.72773
3.70388
3.67893
3.65291
3.62587
3.59783
3.56883
3.53892
3.50813
3.4765
3.44407
3.41088
3.37697
3.34238
3.30716
3.27134
3.23497
3.19808
3.16073
3.12296
3.08479
3.04628
3.00747
2.96839
2.92909
2.88959
2.84994
2.81018
2.77034
2.73045
2.69055
2.65068
2.61086
2.57114
2.53153
2.49208
2.45281
2.41376
2.37496
2.33646
2.29827
2.26046
2.22306
2.18612
2.14969
2.11385
2.07866
2.0442
2.01053
1.97774
1.94587
1.9149
1.88493
0.061303
0.0873544
0.110276
0.128108
0.143441
0.157546
0.17109
0.184475
0.197966
0.211759
0.226007
0.240834
0.256351
0.272655
0.289835
0.30797
0.327132
0.347392
0.368817
0.391468
0.415403
0.440674
0.467324
0.495392
0.52491
0.555903
0.588385
0.622367
0.657847
0.694818
0.733266
0.773169
0.814503
0.857234
0.901326
0.946735
0.993416
1.04132
1.09039
1.14057
1.1918
1.24403
1.29718
1.3512
1.40603
1.46159
1.51782
1.57465
1.63203
1.68988
1.74814
1.80674
1.86562
1.9247
1.98394
2.04326
2.1026
2.1619
2.2211
2.28013
2.33894
2.39748
2.45568
2.51351
2.57092
2.62782
2.68405
2.73957
2.79435
2.84835
2.90151
2.95381
3.0052
3.05564
3.10511
3.15356
3.20096
3.24728
3.29249
3.33655
3.37944
3.42113
3.46159
3.5008
3.53873
3.57536
3.61066
3.64461
3.67719
3.70839
3.73819
3.76657
3.79351
3.819
3.84303
3.86558
3.88665
3.90622
3.92429
3.94085
3.95589
3.96941
3.9814
3.99186
4.0008
4.0082
4.01408
4.01843
4.02126
4.02257
4.02237
4.02068
4.01749
4.01282
4.00668
3.99909
3.99005
3.9796
3.96774
3.9545