/*--------------------------------*- C++ -*----------------------------------*\
| =========                 |                                                 |
| \\      /  F ield         | OpenFOAM: The Open Source CFD Toolbox           |
|  \\    /   O peration     | Version:  2412                                  |
|   \\  /    A nd           | Website:  www.openfoam.com                      |
|    \\/     M anipulation  |                                                 |
\*---------------------------------------------------------------------------*/
FoamFile
{
    version     2.0;
    format      ascii;
    arch        "LSB;label=32;scalar=64";
    class       volScalarField;
    location    "0.24";
    object      nut;
}
// * * * * * * * * * * * * * * * * * * * * * * * * * * * * * * * * * * * * * //

dimensions      [0 2 -1 0 0 0 0];

internalField   nonuniform List<scalar> 
12225
(
2.015e-05
2.24858e-05
2.47491e-05
2.63715e-05
2.7588e-05
2.85143e-05
2.92324e-05
2.97981e-05
3.02485e-05
3.061e-05
3.09018e-05
3.11381e-05
3.13294e-05
3.14835e-05
3.16061e-05
3.17003e-05
3.17687e-05
3.18285e-05
0.000167792
0.000185428
0.000202597
0.000213787
0.000221146
0.000225984
0.000229002
0.00023072
0.000231514
0.000231644
0.000231292
0.000230594
0.00022965
0.000228531
0.000227295
0.00022597
0.000224708
0.000224072
0.000338328
0.000365994
0.000399362
0.000424407
0.00044278
0.000456139
0.000465649
0.000472249
0.000476658
0.00047941
0.000480906
0.000481448
0.000481265
0.00048053
0.000479377
0.000477904
0.000476299
0.000475461
0.000480632
0.000521771
0.000570122
0.000608391
0.000637803
0.00066021
0.000677099
0.000689692
0.000698953
0.000705625
0.00071028
0.00071336
0.000715207
0.000716087
0.000716209
0.00071574
0.00071491
0.000714432
0.00059357
0.000650967
0.00071349
0.000763785
0.000803284
0.000834123
0.000858089
0.00087663
0.000890896
0.000901784
0.000909998
0.000916088
0.00092049
0.000923546
0.000925531
0.00092667
0.000927218
0.000927686
0.000684418
0.000756656
0.000831951
0.000893054
0.000941626
0.000980103
0.00101056
0.00103466
0.00105369
0.0010687
0.00108048
0.00108967
0.00109677
0.00110221
0.0011063
0.00110932
0.00111153
0.00111331
0.000759757
0.00084284
0.000928292
0.000998648
0.00105522
0.00110054
0.00113687
0.00116606
0.00118953
0.00120842
0.00122362
0.00123583
0.00124563
0.00125348
0.00125974
0.00126473
0.0012687
0.00127194
0.000823625
0.000913365
0.00100525
0.00108261
0.00114578
0.00119702
0.00123857
0.00127237
0.00129992
0.00132243
0.00134086
0.00135597
0.00136839
0.00137861
0.00138703
0.00139399
0.00139973
0.00140448
0.000877003
0.000970916
0.0010653
0.00114672
0.00121456
0.00127046
0.0013164
0.00135421
0.00138542
0.00141126
0.00143271
0.00145058
0.00146551
0.00147804
0.00148859
0.0014975
0.00150499
0.00151123
0.000918258
0.00101593
0.00110995
0.00119241
0.00126253
0.0013214
0.00137055
0.00141157
0.00144587
0.00147463
0.00149882
0.00151925
0.00153658
0.00155133
0.00156395
0.00157477
0.001584
0.00159171
0.000944751
0.00104624
0.0011388
0.00122006
0.00129015
0.00135004
0.0014009
0.00144402
0.0014806
0.0015117
0.00153822
0.00156093
0.00158044
0.00159729
0.0016119
0.00162457
0.00163549
0.00164465
0.000953929
0.00105647
0.00114713
0.00122621
0.00129479
0.00135413
0.00140528
0.00144929
0.00148719
0.00151986
0.00154809
0.00157257
0.00159388
0.00161249
0.00162881
0.00164312
0.00165556
0.00166602
0.000951545
0.0010519
0.00114069
0.00121791
0.00128482
0.0013429
0.00139336
0.00143724
0.00147545
0.00150878
0.00153794
0.00156353
0.00158606
0.00160596
0.0016236
0.00163923
0.00165293
0.00166447
0.000937266
0.00102693
0.00110961
0.00118333
0.00124793
0.00130434
0.00135362
0.00139676
0.00143463
0.001468
0.00149751
0.00152369
0.00154702
0.00156787
0.00158656
0.0016033
0.00161811
0.00163063
0.000914066
0.000982516
0.00105
0.00111401
0.00117277
0.00122566
0.00127281
0.00131462
0.00135169
0.00138461
0.00141396
0.00144023
0.00146384
0.00148514
0.00150441
0.00152186
0.00153745
0.00155068
0.000888181
0.000929365
0.000972527
0.00101672
0.00106056
0.0011029
0.00114292
0.00118011
0.00121428
0.00124543
0.00127374
0.00129945
0.00132281
0.00134408
0.00136347
0.00138116
0.00139714
0.00141081
0.000866165
0.000882903
0.000901457
0.000921825
0.00094371
0.000966717
0.000990419
0.00101437
0.00103813
0.00106136
0.00108377
0.00110518
0.00112548
0.00114459
0.00116249
0.0011792
0.00119465
0.00120841
0.000853647
0.000856463
0.000860483
0.000865723
0.000872136
0.000879656
0.000888214
0.000897719
0.000908059
0.000919104
0.000930715
0.000942751
0.000955075
0.000967563
0.000980094
0.000992552
0.00100481
0.00101666
0.000856837
0.00086304
0.000870433
0.000879025
0.000888701
0.000899307
0.000910677
0.000922624
0.000934956
0.000947484
0.000960044
0.000972495
0.000984725
0.00099665
0.00100821
0.00101937
0.00103006
0.00104006
0.000879014
0.000910093
0.000943005
0.0009771
0.00101138
0.00104494
0.00107708
0.00110731
0.00113536
0.00116111
0.00118459
0.0012059
0.0012252
0.00124266
0.00125845
0.00127274
0.00128565
0.00129725
0.000912428
0.000978633
0.00104329
0.00110415
0.00115969
0.00120945
0.00125358
0.00129251
0.00132677
0.0013569
0.00138345
0.00140686
0.00142755
0.00144588
0.00146213
0.00147658
0.00148943
0.00150098
0.000944652
0.00103937
0.00112415
0.00119816
0.00126209
0.00131726
0.00136492
0.0014061
0.00144172
0.00147255
0.00149929
0.00152252
0.00154273
0.00156034
0.00157572
0.00158915
0.00160091
0.00161125
0.000952969
0.00105495
0.00114494
0.00122286
0.00128968
0.00134681
0.00139548
0.00143685
0.001472
0.0015019
0.00152736
0.00154908
0.00156764
0.00158352
0.00159712
0.00160878
0.00161878
0.00162735
0.000919762
0.00101577
0.00110711
0.00118655
0.00125366
0.00130983
0.00135663
0.00139556
0.001428
0.00145508
0.00147772
0.00149669
0.0015126
0.00152595
0.00153716
0.00154657
0.00155445
0.00156098
0.000847919
0.000936212
0.00102591
0.00110193
0.0011644
0.00121544
0.00125709
0.00129112
0.00131899
0.00134186
0.00136065
0.00137609
0.00138878
0.0013992
0.00140773
0.00141469
0.00142033
0.00142481
0.000748241
0.000825344
0.000905836
0.000972006
0.00102523
0.00106796
0.00110226
0.00112982
0.00115199
0.00116982
0.00118415
0.00119563
0.00120479
0.00121206
0.00121778
0.00122223
0.00122561
0.00122806
0.000620838
0.000679397
0.000743804
0.000795902
0.000837071
0.000869522
0.000895045
0.000915071
0.000930738
0.000942939
0.000952376
0.0009596
0.000965047
0.000969063
0.000971926
0.000973855
0.000975025
0.000975553
0.000453206
0.00049108
0.000536513
0.000572228
0.000599359
0.000619976
0.000635559
0.000647219
0.000655838
0.000662098
0.000666518
0.000669499
0.000671354
0.000672324
0.000672601
0.000672335
0.000671645
0.000670628
0.00023657
0.00025923
0.000284033
0.000301436
0.000313162
0.000321244
0.000326756
0.000330375
0.000332602
0.000333804
0.000334243
0.000334113
0.000333558
0.000332689
0.000331589
0.000330323
0.000328939
0.000327501
2.7242e-05
3.0171e-05
3.32397e-05
3.54417e-05
3.70547e-05
3.8262e-05
3.91809e-05
3.98936e-05
4.04543e-05
4.09001e-05
4.12576e-05
4.15462e-05
4.17807e-05
4.19721e-05
4.21288e-05
4.22576e-05
4.23633e-05
4.24508e-05
4.9015e-06
1.32816e-05
1.50919e-05
1.6383e-05
1.73172e-05
1.80417e-05
1.87787e-05
1.95568e-05
2.03408e-05
2.11342e-05
2.19502e-05
2.28204e-05
2.38461e-05
2.50324e-05
2.62748e-05
2.75513e-05
2.8854e-05
3.01807e-05
3.15298e-05
3.28978e-05
3.42804e-05
3.56723e-05
3.70679e-05
3.84626e-05
3.9852e-05
4.12335e-05
4.26052e-05
4.39674e-05
4.53215e-05
4.66712e-05
4.80224e-05
4.93647e-05
5.06858e-05
5.19844e-05
5.32603e-05
5.45134e-05
5.57441e-05
5.69527e-05
5.81395e-05
5.9305e-05
6.04497e-05
6.15742e-05
6.26789e-05
6.37644e-05
6.4831e-05
6.58792e-05
6.69093e-05
6.79215e-05
6.89163e-05
6.98937e-05
7.08538e-05
7.1797e-05
7.27231e-05
7.36322e-05
7.45244e-05
7.53997e-05
7.62579e-05
7.7099e-05
7.7923e-05
7.87297e-05
7.95191e-05
8.0291e-05
8.10453e-05
8.17818e-05
8.25006e-05
8.32014e-05
8.38842e-05
8.45488e-05
8.51952e-05
8.58236e-05
8.6434e-05
8.7027e-05
8.76036e-05
8.81656e-05
8.87162e-05
8.92509e-05
8.97648e-05
9.02587e-05
9.07332e-05
9.11884e-05
9.16244e-05
9.20411e-05
9.24386e-05
9.28167e-05
9.31754e-05
9.35146e-05
9.38343e-05
9.41346e-05
9.44153e-05
9.46764e-05
9.4918e-05
9.514e-05
9.53425e-05
9.55255e-05
9.5689e-05
9.58331e-05
9.59577e-05
9.6063e-05
9.61489e-05
9.62156e-05
9.62631e-05
9.62915e-05
9.63008e-05
9.62911e-05
9.62625e-05
9.62151e-05
9.61489e-05
9.6064e-05
9.59606e-05
9.58387e-05
9.56985e-05
9.554e-05
9.53633e-05
9.51686e-05
9.4956e-05
9.47257e-05
9.44777e-05
9.42123e-05
9.39295e-05
9.36296e-05
9.33127e-05
9.2979e-05
9.26287e-05
9.2262e-05
9.18791e-05
9.14804e-05
9.10659e-05
9.06359e-05
9.01908e-05
8.97308e-05
8.92562e-05
8.87672e-05
8.82643e-05
8.77477e-05
8.72179e-05
8.6675e-05
8.61197e-05
8.55522e-05
8.49725e-05
8.43824e-05
8.37807e-05
8.31702e-05
8.25548e-05
8.19583e-05
8.15105e-05
8.11111e-05
8.07076e-05
8.02963e-05
7.98771e-05
7.94502e-05
7.90161e-05
7.85751e-05
7.81275e-05
7.76738e-05
7.72144e-05
7.67496e-05
7.62799e-05
7.58057e-05
7.53275e-05
7.48456e-05
7.43605e-05
7.38725e-05
7.33821e-05
7.28896e-05
7.23954e-05
7.18999e-05
7.14032e-05
7.09056e-05
7.04072e-05
6.99078e-05
6.94072e-05
6.89047e-05
6.83989e-05
6.78876e-05
6.73666e-05
6.68279e-05
6.62537e-05
6.55991e-05
6.47854e-05
6.37254e-05
7.1602e-06
3.19498e-05
6.33668e-05
8.80419e-05
0.0001055
0.000117939
0.000125788
0.000130961
0.000135247
0.000139422
0.000143656
0.000147864
0.000151928
0.000155872
0.000159815
0.000163855
0.000168075
0.000172553
0.000177357
0.000182543
0.000188152
0.000194212
0.000200737
0.000207727
0.000215171
0.000223048
0.000231326
0.000239967
0.000248929
0.000258168
0.000267648
0.000277347
0.000287244
0.000297312
0.000307523
0.000317851
0.000328274
0.000338769
0.00034932
0.00035991
0.000370528
0.000381163
0.000391807
0.000402453
0.000413095
0.000423729
0.000434351
0.000444958
0.000455546
0.000466113
0.000476655
0.000487169
0.000497652
0.0005081
0.000518509
0.000528874
0.000539192
0.000549458
0.000559666
0.000569812
0.000579891
0.000589897
0.000599825
0.00060967
0.000619427
0.00062909
0.000638653
0.00064811
0.000657453
0.00066667
0.000675745
0.000684657
0.000693369
0.000701834
0.000709831
0.000717341
0.000724657
0.000731823
0.000738847
0.000745729
0.000752467
0.000759058
0.0007655
0.000771791
0.000777929
0.000783911
0.000789735
0.0007954
0.000800903
0.000806242
0.000811417
0.000816426
0.000821267
0.000825939
0.000830441
0.000834772
0.000838932
0.000842919
0.000846732
0.000850371
0.000853835
0.000857124
0.000860238
0.000863175
0.000865935
0.000868519
0.000870925
0.000873153
0.000875204
0.000877076
0.00087877
0.000880285
0.000881623
0.000882781
0.000883761
0.000884563
0.000885186
0.000885631
0.000885898
0.000885988
0.000885901
0.000885638
0.000885199
0.000884584
0.000883796
0.000882835
0.000881702
0.000880399
0.000878927
0.000877287
0.000875481
0.000873512
0.000871382
0.000869091
0.000866645
0.000864043
0.000861291
0.000858393
0.000855343
0.000852162
0.000848843
0.000845356
0.000841628
0.000837352
0.000831612
0.000825057
0.000818194
0.000811161
0.000804006
0.000796748
0.0007894
0.000781971
0.000774469
0.0007669
0.000759272
0.000751589
0.000743859
0.000736086
0.000728277
0.000720438
0.000712572
0.000704687
0.000696786
0.000688875
0.000680958
0.00067304
0.000665125
0.000657216
0.000649316
0.000641426
0.000633548
0.000625678
0.000617812
0.00060994
0.00060204
0.000594073
0.000585938
0.000577376
0.000564797
0.000541325
8.71436e-06
5.13154e-05
0.000104698
0.00014579
0.000174937
0.000194564
0.000207916
0.000217593
0.000225462
0.000232662
0.000239771
0.000247036
0.000254555
0.000262407
0.000270687
0.000279497
0.000288943
0.00029913
0.00031015
0.000322078
0.000334966
0.000348839
0.000363697
0.000379517
0.000396253
0.000413843
0.000432212
0.000451278
0.000470955
0.00049116
0.000511815
0.000532853
0.00055421
0.000575825
0.000597647
0.000619627
0.000641724
0.000663907
0.000686145
0.000708417
0.000730704
0.000752992
0.000775269
0.000797526
0.000819754
0.000841949
0.000864102
0.00088621
0.000908265
0.000930262
0.000952195
0.000974057
0.000995839
0.00101753
0.00103913
0.00106063
0.00108201
0.00110326
0.00112437
0.00114534
0.00116614
0.00118677
0.00120721
0.00122746
0.00124749
0.00126729
0.00128685
0.00130614
0.00132515
0.00134385
0.00136222
0.00138021
0.00139779
0.00141492
0.00143137
0.00144735
0.00146297
0.00147827
0.00149326
0.00150795
0.00152232
0.00153637
0.0015501
0.0015635
0.00157658
0.00158931
0.0016017
0.00161374
0.00162544
0.00163678
0.00164776
0.00165838
0.00166864
0.00167853
0.00168805
0.0016972
0.00170598
0.00171438
0.00172241
0.00173006
0.00173732
0.00174421
0.00175071
0.00175683
0.00176257
0.00176792
0.00177289
0.00177747
0.00178166
0.00178547
0.00178889
0.00179192
0.00179457
0.00179683
0.0017987
0.00180018
0.00180128
0.00180199
0.00180231
0.00180225
0.00180181
0.00180099
0.00179979
0.00179821
0.00179625
0.00179392
0.00179122
0.00178815
0.00178472
0.00178093
0.00177678
0.00177229
0.00176744
0.00176226
0.00175674
0.0017509
0.00174474
0.00173827
0.0017315
0.00172443
0.00171707
0.00170934
0.00170111
0.00169207
0.00168161
0.00167008
0.00165793
0.00164538
0.00163252
0.0016194
0.00160606
0.00159252
0.0015788
0.00156491
0.00155086
0.00153667
0.00152235
0.00150792
0.00149338
0.00147875
0.00146404
0.00144926
0.00143442
0.00141954
0.00140462
0.00138967
0.00137469
0.00135971
0.00134472
0.00132973
0.00131473
0.00129973
0.00128471
0.00126963
0.00125445
0.00123905
0.00122317
0.0012061
0.00118447
0.00114734
9.89154e-06
7.01689e-05
0.000139129
0.000191619
0.000228761
0.000254836
0.000273526
0.000287713
0.000299493
0.000310264
0.000320873
0.000331794
0.00034329
0.000355526
0.000368631
0.000382723
0.000397909
0.000414289
0.000431939
0.000450909
0.000471222
0.000492865
0.0005158
0.000539962
0.000565266
0.000591613
0.000618894
0.000647
0.000675822
0.000705255
0.000735206
0.000765587
0.00079632
0.000827337
0.000858578
0.000889991
0.000921532
0.000953165
0.000984859
0.00101659
0.00104834
0.00108009
0.00111183
0.00114354
0.00117521
0.00120684
0.00123841
0.00126991
0.00130134
0.00133269
0.00136394
0.00139508
0.0014261
0.00145699
0.00148772
0.0015183
0.00154869
0.00157889
0.00160888
0.00163863
0.00166814
0.00169738
0.00172634
0.00175499
0.00178331
0.00181129
0.0018389
0.00186611
0.0018929
0.00191925
0.00194513
0.00197051
0.00199535
0.00201959
0.00204316
0.0020662
0.00208875
0.00211086
0.00213252
0.00215373
0.0021745
0.00219482
0.00221467
0.00223406
0.00225296
0.00227139
0.00228933
0.00230678
0.00232372
0.00234016
0.00235609
0.0023715
0.00238639
0.00240076
0.00241461
0.00242792
0.0024407
0.00245294
0.00246464
0.0024758
0.00248641
0.00249648
0.002506
0.00251498
0.0025234
0.00253127
0.00253858
0.00254534
0.00255154
0.00255719
0.00256228
0.00256681
0.00257079
0.0025742
0.00257706
0.00257936
0.0025811
0.00258228
0.00258291
0.00258298
0.0025825
0.00258147
0.00257989
0.00257776
0.00257508
0.00257187
0.00256812
0.00256384
0.00255903
0.0025537
0.00254785
0.0025415
0.00253464
0.00252729
0.00251946
0.00251116
0.00250239
0.00249318
0.00248353
0.00247342
0.00246286
0.00245178
0.00244007
0.0024275
0.00241376
0.00239897
0.00238342
0.0023673
0.0023507
0.00233371
0.00231637
0.00229871
0.00228075
0.00226252
0.00224404
0.00222533
0.0022064
0.00218728
0.00216798
0.00214852
0.00212891
0.00210918
0.00208933
0.00206938
0.00204936
0.00202926
0.00200912
0.00198892
0.0019687
0.00194844
0.00192817
0.00190786
0.00188751
0.00186707
0.00184648
0.00182557
0.00180401
0.00178089
0.00175334
0.00171336
1.07575e-05
8.55667e-05
0.000167442
0.000229608
0.000274596
0.000307079
0.000331111
0.000349865
0.000365684
0.000380196
0.000394466
0.000409153
0.000424656
0.000441226
0.00045903
0.000478195
0.000498815
0.000520961
0.000544673
0.000569962
0.000596806
0.000625157
0.000654938
0.000686055
0.000718397
0.000751847
0.000786284
0.000821586
0.00085764
0.000894336
0.000931577
0.000969271
0.00100734
0.00104571
0.00108433
0.00112314
0.00116209
0.00120115
0.00124028
0.00127946
0.00131866
0.00135787
0.00139706
0.00143622
0.00147534
0.0015144
0.00155338
0.00159228
0.00163108
0.00166976
0.00170831
0.00174671
0.00178495
0.001823
0.00186086
0.00189849
0.00193589
0.00197303
0.00200988
0.00204644
0.00208266
0.00211855
0.00215406
0.00218918
0.00222388
0.00225814
0.00229194
0.00232525
0.00235805
0.00239032
0.00242202
0.00245315
0.00248368
0.00251348
0.00254262
0.00257117
0.00259915
0.00262659
0.00265349
0.00267984
0.00270566
0.00273092
0.00275561
0.00277975
0.0028033
0.00282627
0.00284865
0.00287043
0.0028916
0.00291216
0.0029321
0.00295141
0.00297009
0.00298814
0.00300555
0.00302231
0.00303843
0.00305389
0.00306869
0.00308283
0.00309631
0.00310912
0.00312126
0.00313273
0.00314353
0.00315365
0.0031631
0.00317186
0.00317994
0.00318734
0.00319406
0.00320009
0.00320544
0.00321009
0.00321406
0.00321735
0.00321994
0.00322185
0.00322308
0.00322361
0.00322347
0.00322264
0.00322113
0.00321895
0.00321609
0.00321256
0.00320836
0.00320351
0.003198
0.00319184
0.00318504
0.0031776
0.00316955
0.00316088
0.00315161
0.00314175
0.0031313
0.00312029
0.00310871
0.00309656
0.00308383
0.00307049
0.00305643
0.00304153
0.00302563
0.00300876
0.00299107
0.00297271
0.00295377
0.00293431
0.0029144
0.00289406
0.00287333
0.00285223
0.0028308
0.00280905
0.002787
0.00276469
0.00274212
0.00271933
0.00269633
0.00267313
0.00264977
0.00262626
0.00260262
0.00257887
0.00255502
0.0025311
0.00250711
0.00248306
0.00245897
0.00243483
0.00241064
0.00238634
0.00236188
0.00233709
0.0023116
0.00228459
0.0022538
0.00221473
1.146e-05
9.68929e-05
0.000189445
0.000260876
0.000313644
0.000352652
0.000382211
0.000405732
0.000425773
0.000444168
0.00046217
0.0004806
0.000499978
0.000520629
0.000542762
0.000566504
0.000591936
0.000619098
0.000647994
0.000678599
0.000710858
0.000744694
0.000780009
0.00081669
0.000854618
0.000893669
0.000933719
0.000974647
0.00101634
0.00105869
0.0011016
0.00114498
0.00118876
0.00123286
0.00127722
0.00132179
0.00136652
0.00141137
0.00145631
0.0015013
0.00154631
0.00159133
0.00163632
0.00168128
0.00172618
0.001771
0.00181573
0.00186034
0.00190482
0.00194916
0.00199333
0.00203731
0.00208108
0.00212463
0.00216793
0.00221096
0.00225369
0.00229612
0.0023382
0.00237992
0.00242125
0.00246218
0.00250266
0.0025427
0.00258224
0.00262129
0.0026598
0.00269776
0.00273514
0.00277193
0.0028081
0.00284364
0.00287852
0.00291264
0.00294608
0.00297888
0.00301106
0.00304263
0.0030736
0.00310397
0.00313372
0.00316286
0.00319137
0.00321924
0.00324647
0.00327305
0.00329897
0.00332422
0.00334878
0.00337267
0.00339586
0.00341835
0.00344013
0.0034612
0.00348155
0.00350118
0.00352008
0.00353825
0.00355567
0.00357235
0.00358828
0.00360347
0.00361789
0.00363156
0.00364447
0.00365661
0.00366799
0.0036786
0.00368843
0.00369749
0.00370578
0.00371328
0.00372001
0.00372596
0.00373112
0.0037355
0.0037391
0.00374191
0.00374395
0.0037452
0.00374566
0.00374535
0.00374426
0.0037424
0.00373976
0.00373636
0.00373219
0.00372726
0.00372158
0.00371515
0.003708
0.0037001
0.00369148
0.00368216
0.00367214
0.00366143
0.00365004
0.00363798
0.00362527
0.0036119
0.00359786
0.00358312
0.00356764
0.00355133
0.0035341
0.00351597
0.00349702
0.00347734
0.00345699
0.00343606
0.00341457
0.00339258
0.00337011
0.00334721
0.00332389
0.00330017
0.0032761
0.00325168
0.00322695
0.00320193
0.00317664
0.0031511
0.00312534
0.00309938
0.00307324
0.00304695
0.00302052
0.00299397
0.00296733
0.00294062
0.00291383
0.00288698
0.00286007
0.00283307
0.00280592
0.00277848
0.00275043
0.00272105
0.00268876
0.00265126
1.24069e-05
0.000102268
0.000204467
0.000285153
0.000345826
0.000391529
0.000426816
0.000455308
0.000479749
0.000502148
0.000523915
0.000546009
0.000569056
0.000593454
0.000619447
0.000647175
0.00067671
0.00070807
0.000741239
0.000776165
0.000812773
0.000850971
0.000890649
0.00093169
0.000973971
0.00101737
0.00106176
0.00110703
0.00115307
0.00119978
0.00124706
0.00129482
0.00134299
0.00139149
0.00144027
0.00148927
0.00153844
0.00158774
0.00163713
0.00168657
0.00173603
0.00178549
0.00183492
0.0018843
0.0019336
0.00198281
0.0020319
0.00208085
0.00212964
0.00217825
0.00222666
0.00227486
0.00232281
0.0023705
0.00241789
0.00246498
0.00251174
0.00255814
0.00260416
0.00264977
0.00269495
0.00273968
0.00278393
0.00282768
0.0028709
0.00291357
0.00295567
0.00299717
0.00303806
0.00307832
0.00311792
0.00315685
0.00319507
0.00323254
0.00326931
0.00330541
0.00334087
0.00337568
0.00340985
0.00344338
0.00347625
0.00350847
0.00354003
0.0035709
0.0036011
0.00363059
0.00365938
0.00368745
0.0037148
0.00374142
0.0037673
0.00379242
0.00381679
0.0038404
0.00386323
0.00388529
0.00390656
0.00392705
0.00394673
0.00396562
0.00398369
0.00400096
0.00401741
0.00403304
0.00404785
0.00406183
0.00407498
0.0040873
0.00409877
0.00410941
0.0041192
0.00412815
0.00413625
0.0041435
0.0041499
0.00415544
0.00416013
0.00416397
0.00416696
0.00416909
0.00417036
0.00417078
0.00417035
0.00416907
0.00416695
0.00416397
0.00416017
0.00415554
0.00415006
0.00414377
0.00413667
0.00412876
0.00412005
0.00411056
0.0041003
0.00408928
0.0040775
0.00406499
0.00405174
0.00403776
0.00402304
0.00400758
0.00399135
0.00397428
0.00395636
0.00393757
0.00391796
0.00389759
0.0038765
0.00385477
0.00383242
0.0038095
0.00378604
0.00376207
0.00373763
0.00371273
0.00368741
0.00366169
0.00363559
0.00360915
0.00358239
0.00355532
0.00352799
0.00350041
0.0034726
0.0034446
0.00341642
0.0033881
0.00335965
0.00333109
0.00330246
0.00327375
0.00324499
0.00321615
0.0031872
0.00315804
0.00312839
0.00309771
0.00306489
0.00302871
1.31889e-05
0.000104897
0.000214444
0.000303302
0.000371447
0.000423725
0.000464769
0.000498323
0.000527261
0.000553718
0.000579231
0.000604867
0.000631344
0.000659127
0.000688499
0.000719623
0.000752571
0.00078736
0.00082396
0.00086231
0.000902329
0.000943914
0.000986956
0.00103134
0.00107694
0.00112363
0.00117131
0.00121986
0.00126918
0.00131916
0.00136971
0.00142075
0.00147221
0.00152401
0.00157609
0.00162839
0.00168086
0.00173347
0.00178616
0.0018389
0.00189166
0.00194441
0.00199711
0.00204975
0.0021023
0.00215473
0.00220703
0.00225918
0.00231114
0.0023629
0.00241444
0.00246574
0.00251677
0.00256752
0.00261795
0.00266805
0.00271779
0.00276715
0.00281611
0.00286464
0.00291271
0.0029603
0.00300739
0.00305396
0.00309997
0.00314541
0.00319026
0.00323449
0.00327808
0.00332102
0.00336329
0.00340488
0.00344571
0.00348581
0.00352521
0.00356394
0.00360201
0.00363942
0.00367618
0.00371227
0.00374769
0.00378244
0.00381649
0.00384985
0.0038825
0.00391443
0.00394562
0.00397607
0.00400577
0.00403471
0.00406287
0.00409026
0.00411685
0.00414265
0.00416764
0.00419182
0.00421517
0.0042377
0.00425939
0.00428023
0.00430023
0.00431937
0.00433765
0.00435508
0.00437163
0.00438731
0.00440211
0.00441604
0.00442907
0.00444121
0.00445246
0.00446282
0.00447228
0.00448084
0.00448849
0.00449524
0.00450107
0.00450601
0.00451004
0.00451316
0.00451536
0.00451665
0.00451705
0.00451655
0.00451513
0.0045128
0.00450959
0.00450548
0.00450049
0.00449461
0.00448787
0.00448027
0.00447182
0.00446252
0.00445239
0.00444144
0.00442969
0.00441713
0.00440379
0.00438966
0.00437474
0.00435904
0.00434254
0.00432521
0.00430704
0.00428802
0.00426819
0.00424757
0.00422622
0.00420417
0.00418146
0.00415812
0.0041342
0.00410971
0.00408469
0.00405917
0.00403317
0.00400673
0.00397986
0.00395259
0.00392495
0.00389697
0.00386867
0.00384008
0.00381123
0.00378214
0.00375284
0.00372337
0.00369374
0.00366398
0.00363413
0.00360421
0.00357423
0.00354421
0.00351413
0.00348391
0.00345337
0.00342209
0.0033893
0.00335431
1.38075e-05
0.000105565
0.000220302
0.000316003
0.000390905
0.000449405
0.000496052
0.000534615
0.000568031
0.000598515
0.000627687
0.000656702
0.000686351
0.000717158
0.000749453
0.000783423
0.000819161
0.000856687
0.000895976
0.000936968
0.000979581
0.00102371
0.00106926
0.00111611
0.00116414
0.00121324
0.0012633
0.00131422
0.00136588
0.00141819
0.00147107
0.00152444
0.00157821
0.00163232
0.00168671
0.00174133
0.00179611
0.00185101
0.001906
0.00196103
0.00201608
0.0020711
0.00212608
0.00218098
0.00223579
0.00229047
0.00234501
0.00239938
0.00245357
0.00250755
0.00256131
0.00261481
0.00266804
0.00272099
0.00277361
0.00282591
0.00287783
0.00292938
0.00298052
0.00303122
0.00308146
0.00313122
0.00318047
0.0032292
0.00327736
0.00332495
0.00337194
0.0034183
0.00346403
0.00350909
0.00355348
0.00359717
0.00364011
0.00368235
0.00372391
0.00376481
0.00380505
0.00384463
0.00388355
0.00392181
0.00395939
0.00399629
0.00403249
0.00406798
0.00410274
0.00413678
0.00417007
0.00420259
0.00423435
0.00426533
0.00429552
0.0043249
0.00435348
0.00438123
0.00440816
0.00443424
0.00445948
0.00448386
0.00450738
0.00453002
0.00455178
0.00457266
0.00459264
0.00461173
0.00462992
0.00464721
0.00466358
0.00467903
0.00469356
0.00470716
0.00471983
0.00473157
0.00474237
0.00475224
0.00476116
0.00476913
0.00477615
0.00478223
0.00478737
0.00479155
0.00479477
0.00479703
0.00479835
0.00479873
0.00479815
0.00479663
0.00479417
0.00479077
0.00478645
0.00478121
0.00477505
0.00476799
0.00476003
0.00475119
0.00474147
0.00473088
0.00471944
0.00470715
0.00469403
0.00468009
0.00466532
0.00464973
0.00463332
0.00461607
0.00459799
0.00457907
0.00455933
0.0045388
0.00451751
0.00449549
0.00447277
0.00444939
0.00442539
0.00440077
0.00437559
0.00434985
0.0043236
0.00429685
0.00426964
0.00424199
0.00421393
0.00418548
0.00415667
0.00412754
0.0040981
0.0040684
0.00403845
0.0040083
0.00397796
0.00394749
0.0039169
0.00388624
0.00385554
0.00382482
0.00379409
0.00376332
0.00373236
0.00370093
0.00366848
0.0036346
1.42829e-05
0.000104716
0.0002227
0.000323866
0.000404669
0.000468877
0.000520819
0.0005642
0.000601959
0.000636343
0.000669023
0.000701211
0.000733758
0.000767241
0.000802032
0.000838353
0.000876319
0.000915971
0.000957294
0.00100024
0.00104473
0.00109067
0.00113796
0.0011865
0.00123618
0.00128688
0.0013385
0.00139094
0.0014441
0.0014979
0.00155224
0.00160704
0.00166224
0.00171777
0.00177356
0.00182957
0.00188574
0.00194203
0.0019984
0.00205482
0.00211124
0.00216765
0.00222401
0.0022803
0.00233651
0.00239259
0.00244855
0.00250435
0.00255998
0.00261542
0.00267064
0.00272563
0.00278037
0.00283484
0.00288901
0.00294287
0.00299638
0.00304953
0.00310228
0.00315462
0.00320652
0.00325795
0.00330888
0.0033593
0.00340917
0.00345847
0.00350718
0.00355527
0.00360273
0.00364953
0.00369567
0.00374109
0.00378582
0.00382989
0.0038733
0.00391607
0.00395819
0.00399967
0.0040405
0.00408066
0.00412016
0.00415897
0.00419708
0.00423448
0.00427115
0.00430709
0.00434227
0.00437668
0.00441032
0.00444316
0.0044752
0.00450642
0.00453681
0.00456637
0.00459509
0.00462294
0.00464994
0.00467605
0.00470128
0.00472561
0.00474903
0.00477155
0.00479314
0.00481382
0.00483358
0.0048524
0.00487029
0.00488723
0.00490321
0.00491823
0.00493229
0.00494539
0.00495753
0.00496872
0.00497891
0.00498812
0.00499634
0.00500359
0.00500986
0.00501514
0.00501944
0.00502275
0.00502508
0.00502643
0.0050268
0.00502619
0.00502461
0.00502207
0.00501856
0.0050141
0.00500869
0.00500234
0.00499506
0.00498686
0.00497775
0.00496773
0.00495683
0.00494505
0.00493239
0.00491888
0.00490452
0.0048893
0.00487325
0.00485635
0.0048386
0.00482003
0.00480063
0.00478042
0.00475944
0.00473771
0.00471526
0.00469212
0.00466831
0.00464386
0.00461881
0.00459317
0.00456698
0.00454025
0.00451303
0.00448532
0.00445717
0.0044286
0.00439964
0.00437031
0.00434065
0.00431068
0.00428044
0.00424997
0.0042193
0.00418847
0.00415752
0.00412649
0.00409543
0.00406438
0.00403336
0.00400237
0.00397133
0.00394003
0.00390809
0.00387523
1.4633e-05
0.000102707
0.000222218
0.000327485
0.000413254
0.00048254
0.000539349
0.000587244
0.000629106
0.000667176
0.000703145
0.000738258
0.000773411
0.000809221
0.000846103
0.000884314
0.000923997
0.000965216
0.00100797
0.00105224
0.00109794
0.00114501
0.00119334
0.00124284
0.0012934
0.00134493
0.00139733
0.00145049
0.00150434
0.00155878
0.00161373
0.00166912
0.00172488
0.00178095
0.00183728
0.00189381
0.00195051
0.00200732
0.00206422
0.00212118
0.00217816
0.00223514
0.00229211
0.00234903
0.00240589
0.00246267
0.00251935
0.00257592
0.00263235
0.00268864
0.00274476
0.00280069
0.00285641
0.0029119
0.00296715
0.00302212
0.00307679
0.00313113
0.00318512
0.00323873
0.00329194
0.00334471
0.00339701
0.00344881
0.0035001
0.00355083
0.00360099
0.00365055
0.00369949
0.00374779
0.00379542
0.00384239
0.00388872
0.00393443
0.00397952
0.00402398
0.00406783
0.00411104
0.00415362
0.00419555
0.00423681
0.0042774
0.00431729
0.00435647
0.00439493
0.00443264
0.00446959
0.00450578
0.00454117
0.00457576
0.00460955
0.0046425
0.00467462
0.00470589
0.0047363
0.00476584
0.00479451
0.00482228
0.00484914
0.00487509
0.00490011
0.0049242
0.00494735
0.00496957
0.00499084
0.00501116
0.00503054
0.00504893
0.00506633
0.00508275
0.00509819
0.00511264
0.00512611
0.00513858
0.00515005
0.00516051
0.00516997
0.00517842
0.00518586
0.0051923
0.00519772
0.00520214
0.00520555
0.00520795
0.00520935
0.00520975
0.00520915
0.00520755
0.00520497
0.00520141
0.00519688
0.00519138
0.00518491
0.00517751
0.00516916
0.00515988
0.00514968
0.00513858
0.00512658
0.00511369
0.00509993
0.0050853
0.0050698
0.00505345
0.00503625
0.00501821
0.00499934
0.00497965
0.00495918
0.00493794
0.00491596
0.00489327
0.00486988
0.00484583
0.00482113
0.00479583
0.00476994
0.00474349
0.0047165
0.00468901
0.00466103
0.0046326
0.00460375
0.0045745
0.00454489
0.00451495
0.0044847
0.0044542
0.00442348
0.00439257
0.00436154
0.00433043
0.00429929
0.00426817
0.00423713
0.00420618
0.00417528
0.0041443
0.00411293
0.00408101
1.48722e-05
9.9834e-05
0.000219382
0.000327434
0.000417187
0.000490843
0.000551996
0.000603998
0.000649631
0.00069109
0.000730059
0.000767796
0.000805224
0.000842995
0.000881556
0.000921196
0.000962091
0.00100433
0.00104793
0.00109289
0.00113914
0.00118663
0.00123528
0.00128499
0.00133567
0.00138723
0.00143958
0.00149264
0.00154631
0.00160053
0.00165522
0.00171032
0.00176577
0.00182152
0.00187752
0.00193373
0.00199011
0.00204664
0.00210329
0.00216002
0.00221683
0.00227369
0.00233058
0.0023875
0.00244441
0.00250132
0.0025582
0.00261503
0.00267181
0.00272851
0.00278511
0.00284161
0.00289796
0.00295416
0.00301018
0.00306598
0.00312155
0.00317686
0.00323187
0.00328654
0.00334086
0.00339479
0.00344828
0.00350132
0.00355386
0.00360588
0.00365734
0.00370822
0.0037585
0.00380814
0.00385717
0.00390561
0.00395346