/*--------------------------------*- C++ -*----------------------------------*\
| =========                 |                                                 |
| \\      /  F ield         | OpenFOAM: The Open Source CFD Toolbox           |
|  \\    /   O peration     | Version:  2412                                  |
|   \\  /    A nd           | Website:  www.openfoam.com                      |
|    \\/     M anipulation  |                                                 |
\*---------------------------------------------------------------------------*/
FoamFile
{
    version     2.0;
    format      ascii;
    arch        "LSB;label=32;scalar=64";
    class       volScalarField;
    location    "0.24";
    object      p;
}
// * * * * * * * * * * * * * * * * * * * * * * * * * * * * * * * * * * * * * //

dimensions      [0 2 -2 0 0 0 0];

internalField   nonuniform List<scalar> 
12225
(
-10.329
-9.73668
-9.07397
-8.51754
-8.00849
-7.55205
-7.1535
-6.8025
-6.49015
-6.21088
-5.95977
-5.73232
-5.5247
-5.33356
-5.15585
-4.98806
-4.82797
-4.66111
-10.7628
-9.79486
-9.10878
-8.55851
-8.04878
-7.5923
-7.19311
-6.84071
-6.52673
-6.24576
-5.99291
-5.76374
-5.55442
-5.3616
-5.18221
-5.01288
-4.85076
-4.69262
-10.9432
-9.82914
-9.15053
-8.60938
-8.09918
-7.64357
-7.24452
-6.89106
-6.57554
-6.29278
-6.038
-5.80681
-5.59546
-5.40064
-5.21931
-5.04831
-4.88479
-4.72368
-10.9671
-9.84485
-9.17521
-8.64334
-8.13584
-7.68309
-7.28591
-6.933
-6.61732
-6.33396
-6.07826
-5.84596
-5.63341
-5.43743
-5.25505
-5.08353
-4.91962
-4.76246
-10.897
-9.83957
-9.1755
-8.65412
-8.15366
-7.70583
-7.31221
-6.96151
-6.64713
-6.36445
-6.10899
-5.87666
-5.66396
-5.46785
-5.28555
-5.11483
-4.95235
-4.80307
-10.7552
-9.80643
-9.15201
-8.64326
-8.15443
-7.7138
-7.32534
-6.97834
-6.66652
-6.38562
-6.13139
-5.89995
-5.68799
-5.49267
-5.31145
-5.14264
-4.98305
-4.84232
-10.5526
-9.73999
-9.10577
-8.61158
-8.13885
-7.7082
-7.32663
-6.98484
-6.67684
-6.39876
-6.14668
-5.91698
-5.70659
-5.5129
-5.33366
-5.16765
-5.01193
-4.87948
-10.2996
-9.63765
-9.03758
-8.55963
-8.10684
-7.68941
-7.31669
-6.98167
-6.67881
-6.40463
-6.15564
-5.92856
-5.72055
-5.52931
-5.35287
-5.1904
-5.03919
-4.91461
-10.0072
-9.49912
-8.9486
-8.48905
-8.05891
-7.65801
-7.29625
-6.96959
-6.67321
-6.40406
-6.15914
-5.93553
-5.73073
-5.54272
-5.36981
-5.2115
-5.06521
-4.94796
-9.68641
-9.32637
-8.84018
-8.40272
-7.99676
-7.61532
-7.26664
-6.94982
-6.66121
-6.39819
-6.15827
-5.93899
-5.73818
-5.55411
-5.38538
-5.23169
-5.09055
-4.97999
-9.3495
-9.12418
-8.71396
-8.30415
-7.92334
-7.56357
-7.22996
-6.92427
-6.6445
-6.38858
-6.15452
-5.94032
-5.74418
-5.56468
-5.40063
-5.25189
-5.11589
-5.01157
-9.0375
-8.91839
-8.58422
-8.20597
-7.8491
-7.51067
-7.19252
-6.89805
-6.62714
-6.37842
-6.15035
-5.94137
-5.75001
-5.57511
-5.41566
-5.27165
-5.14013
-5.04142
-8.74249
-8.704
-8.44566
-8.10373
-7.77107
-7.45464
-7.15324
-6.87079
-6.60921
-6.36814
-6.1465
-5.9431
-5.75683
-5.58677
-5.43206
-5.29272
-5.16612
-5.07074
-8.4354
-8.45955
-8.28004
-7.98421
-7.68028
-7.38941
-7.10873
-6.84132
-6.5911
-6.35924
-6.14532
-5.9486
-5.76835
-5.60391
-5.45463
-5.32049
-5.19921
-5.10633
-8.13827
-8.20528
-8.09743
-7.85347
-7.58199
-7.31869
-7.06197
-6.81291
-6.57651
-6.35568
-6.15096
-5.9621
-5.78876
-5.6306
-5.48717
-5.35849
-5.24245
-5.15169
-7.87983
-7.97317
-7.92297
-7.73005
-7.49191
-7.25498
-7.02202
-6.79248
-6.57121
-6.36256
-6.16814
-5.98814
-5.82251
-5.67118
-5.53385
-5.41062
-5.29955
-5.21034
-7.69217
-7.80026
-7.79155
-7.64273
-7.43597
-7.22242
-7.00998
-6.79784
-6.59021
-6.39233
-6.20686
-6.03455
-5.87553
-5.72992
-5.5975
-5.47827
-5.37062
-5.28054
-7.61556
-7.72788
-7.74039
-7.61875
-7.43378
-7.23686
-7.03903
-6.83978
-6.64269
-6.45317
-6.27453
-6.10779
-5.95316
-5.81066
-5.6802
-5.56154
-5.45368
-5.35791
-7.71486
-7.82189
-7.82823
-7.70158
-7.51336
-7.31462
-7.11598
-6.91674
-6.7203
-6.53187
-6.35451
-6.18901
-6.03537
-5.89338
-5.76273
-5.64272
-5.53308
-5.43065
-7.99108
-8.0855
-8.05207
-7.88051
-7.65894
-7.43623
-7.21784
-7.00249
-6.79415
-6.59735
-6.41396
-6.24403
-6.0871
-5.94259
-5.80981
-5.68767
-5.5759
-5.46887
-8.38445
-8.44257
-8.34019
-8.10576
-7.84143
-7.58647
-7.34035
-7.10257
-6.87749
-6.66822
-6.47522
-6.29778
-6.13504
-5.98606
-5.84987
-5.72523
-5.61171
-5.50336
-8.88484
-8.86457
-8.65636
-8.34658
-8.03454
-7.74055
-7.46087
-7.19737
-6.95355
-6.73017
-6.52622
-6.34034
-6.17114
-6.01723
-5.87727
-5.74984
-5.63416
-5.52453
-9.44886
-9.29328
-8.94938
-8.56651
-8.20989
-7.87637
-7.56438
-7.27774
-7.01718
-6.78094
-6.56697
-6.37333
-6.19813
-6.03955
-5.89593
-5.76568
-5.64774
-5.53704
-10.0133
-9.66729
-9.18419
-8.74639
-8.35246
-7.98293
-7.6435
-7.33783
-7.06303
-6.81564
-6.593
-6.39268
-6.21228
-6.04961
-5.90276
-5.76999
-5.65001
-5.53842
-10.5173
-9.9488
-9.35315
-8.88134
-8.45476
-8.05427
-7.69345
-7.37297
-7.08683
-6.83066
-6.60134
-6.39593
-6.2116
-6.04587
-5.89662
-5.76197
-5.64049
-5.52842
-10.9188
-10.1264
-9.4599
-8.96776
-8.51264
-8.08872
-7.71299
-7.38193
-7.08764
-6.82532
-6.59144
-6.3826
-6.19567
-6.02796
-5.87722
-5.74142
-5.61906
-5.50695
-11.1901
-10.2099
-9.51013
-9.00344
-8.52707
-8.08828
-7.70304
-7.36501
-7.06556
-6.79952
-6.56301
-6.35231
-6.16409
-5.9955
-5.84418
-5.70804
-5.58548
-5.47388
-11.2974
-10.2253
-9.51078
-8.98771
-8.49932
-8.05298
-7.66215
-7.32033
-7.01853
-6.75114
-6.51394
-6.30305
-6.11496
-5.94673
-5.7959
-5.66034
-5.53839
-5.42799
-11.1647
-10.1955
-9.47576
-8.93009
-8.43678
-7.9881
-7.59494
-7.25227
-6.95081
-6.68431
-6.44834
-6.23889
-6.05234
-5.88569
-5.73642
-5.60238
-5.48181
-5.37297
-10.6336
-10.1032
-9.43318
-8.87317
-8.37812
-7.9292
-7.53559
-7.19354
-6.89343
-6.62848
-6.39413
-6.18632
-6.00141
-5.83632
-5.68853
-5.55589
-5.43654
-5.32868
-4.7182
-4.71788
-4.71882
-4.72082
-4.72335
-4.72607
-4.72886
-4.73177
-4.73489
-4.73827
-4.74198
-4.74611
-4.75078
-4.75607
-4.76209
-4.76893
-4.77672
-4.78557
-4.7956
-4.80696
-4.81974
-4.83405
-4.84998
-4.86758
-4.88688
-4.90784
-4.93043
-4.95454
-4.98007
-5.00687
-5.03469
-5.06328
-5.09239
-5.12181
-5.15133
-5.18073
-5.20981
-5.23837
-5.26623
-5.2932
-5.31912
-5.34383
-5.36717
-5.389
-5.40918
-5.42757
-5.44406
-5.45851
-5.4708
-5.48081
-5.48843
-5.49355
-5.49605
-5.49583
-5.49279
-5.48682
-5.47782
-5.46571
-5.45039
-5.43179
-5.40982
-5.3844
-5.35547
-5.32297
-5.28684
-5.24703
-5.2035
-5.15622
-5.10515
-5.05028
-4.99161
-4.92918
-4.86305
-4.79323
-4.71961
-4.64202
-4.56044
-4.475
-4.38579
-4.29287
-4.19628
-4.0961
-3.99235
-3.88511
-3.77443
-3.66039
-3.54306
-3.42251
-3.29883
-3.17212
-3.04245
-2.90993
-2.77467
-2.63676
-2.49632
-2.35345
-2.20829
-2.06094
-1.91152
-1.76018
-1.60702
-1.45219
-1.29581
-1.13802
-0.978962
-0.818769
-0.657581
-0.495541
-0.33279
-0.169471
-0.00572873
0.158294
0.322453
0.486605
0.650605
0.814312
0.977584
1.14028
1.30226
1.4634
1.62354
1.78257
1.94035
2.09677
2.25168
2.40498
2.55656
2.70629
2.85409
2.99983
3.14344
3.28482
3.42388
3.56054
3.69474
3.8264
3.95546
4.08188
4.20561
4.3266
4.44483
4.56028
4.67294
4.78278
4.88975
4.99376
5.09482
5.19293
5.28814
5.38047
5.46995
5.5566
5.64045
5.72152
5.79985
5.87547
5.94842
6.01873
6.08644
6.15159
6.21422
6.27436
6.33206
6.38737
6.44031
6.49094
6.53931
6.58546
6.62946
6.67137
6.7113
6.74937
6.78578
6.82082
6.85498
6.88909
6.92506
6.96603
7.02384
7.09895
-4.71793
-4.7182
-4.71922
-4.72096
-4.72292
-4.72475
-4.72631
-4.72767
-4.72906
-4.73071
-4.73279
-4.73539
-4.73858
-4.74242
-4.747
-4.75245
-4.7589
-4.7665
-4.77541
-4.78578
-4.79777
-4.81148
-4.82703
-4.84444
-4.86374
-4.88487
-4.90776
-4.93225
-4.95819
-4.98537
-5.01356
-5.0425
-5.07195
-5.10168
-5.13148
-5.16112
-5.19041
-5.21915
-5.24716
-5.27429
-5.30036
-5.32522
-5.34874
-5.37077
-5.39119
-5.40985
-5.42664
-5.44144
-5.45413
-5.46458
-5.47269
-5.47834
-5.48142
-5.48183
-5.47946
-5.47421
-5.46598
-5.45467
-5.44021
-5.42249
-5.40145
-5.37701
-5.34909
-5.31764
-5.2826
-5.24392
-5.20156
-5.15547
-5.10564
-5.05203
-4.99461
-4.93336
-4.86825
-4.79921
-4.72614
-4.64923
-4.56867
-4.48442
-4.39645
-4.3048
-4.2095
-4.11059
-4.00812
-3.90214
-3.79272
-3.67992
-3.56382
-3.44448
-3.322
-3.19646
-3.06795
-2.93657
-2.80242
-2.6656
-2.52622
-2.38439
-2.24023
-2.09386
-1.9454
-1.79497
-1.6427
-1.48872
-1.33316
-1.17616
-1.01786
-0.85838
-0.697872
-0.536475
-0.374329
-0.211578
-0.0483637
0.11517
0.278879
0.44262
0.60625
0.769628
0.932611
1.09506
1.25683
1.4178
1.57782
1.73676
1.8945
2.0509
2.20585
2.35923
2.51091
2.6608
2.80878
2.95475
3.09861
3.24028
3.37966
3.51669
3.65127
3.78336
3.91288
4.03978
4.16401
4.28555
4.40435
4.52039
4.63366
4.74413
4.85172
4.95638
5.05812
5.15694
5.25287
5.34592
5.43612
5.5235
5.60808
5.68988
5.76894
5.84529
5.91896
5.98999
6.05841
6.12426
6.18758
6.24841
6.30679
6.36275
6.41635
6.46763
6.51663
6.56341
6.60803
6.65057
6.69114
6.72987
6.76698
6.80278
6.83781
6.87292
6.91003
6.95126
7.00725
7.07345
-4.71203
-4.7138
-4.71597
-4.71815
-4.71987
-4.72104
-4.72181
-4.7224
-4.72307
-4.724
-4.72535
-4.72724
-4.72979
-4.73312
-4.73737
-4.74269
-4.74922
-4.75711
-4.76651
-4.77754
-4.79028
-4.80482
-4.82116
-4.83929
-4.85916
-4.88068
-4.90373
-4.92817
-4.95381
-4.98048
-5.00796
-5.03607
-5.06459
-5.09332
-5.12208
-5.15068
-5.17895
-5.2067
-5.23379
-5.26005
-5.28534
-5.30951
-5.33242
-5.35394
-5.37393
-5.39227
-5.40884
-5.4235
-5.43614
-5.44665
-5.45489
-5.46076
-5.46415
-5.46495
-5.46304
-5.45833
-5.45071
-5.4401
-5.42638
-5.40949
-5.38933
-5.36583
-5.33892
-5.30852
-5.27459
-5.23706
-5.19589
-5.15104
-5.10246
-5.05015
-4.99405
-4.93416
-4.87041
-4.80281
-4.73136
-4.65608
-4.57706
-4.49431
-4.40786
-4.31772
-4.22395
-4.12656
-4.02562
-3.92117
-3.81327
-3.70198
-3.58738
-3.46954
-3.34853
-3.22445
-3.09738
-2.96742
-2.83466
-2.69921
-2.56118
-2.42067
-2.2778
-2.13269
-1.98545
-1.83621
-1.6851
-1.53224
-1.37776
-1.2218
-1.0645
-0.905981
-0.746392
-0.585869
-0.424552
-0.262585
-0.100109
0.0627339
0.2258
0.388947
0.552033
0.714915
0.877452
1.03951
1.20094
1.36161
1.52139
1.68014
1.83774
1.99406
2.14897
2.30236
2.45411
2.60411
2.75225
2.89842
3.04255
3.18452
3.32425
3.46167
3.59669
3.72925
3.85929
3.98674
4.11157
4.23372
4.35316
4.46986
4.58379
4.69493
4.80325
4.90872
5.01134
5.11107
5.20792
5.30191
5.39306
5.48138
5.56691
5.64966
5.72966
5.80695
5.88155
5.9535
6.02284
6.08959
6.15381
6.21551
6.27475
6.33157
6.386
6.4381
6.48791
6.53548
6.58089
6.62422
6.66558
6.70513
6.74308
6.77978
6.81578
6.85192
6.89003
6.93139
6.98524
7.03844
-4.7004
-4.7042
-4.70827
-4.71166
-4.71398
-4.71545
-4.71642
-4.71719
-4.71803
-4.71915
-4.72074
-4.72295
-4.72593
-4.72982
-4.73477
-4.74091
-4.74838
-4.75729
-4.76774
-4.77981
-4.79353
-4.80892
-4.82596
-4.8446
-4.86477
-4.88636
-4.90927
-4.93334
-4.95844
-4.9844
-5.01106
-5.03825
-5.06579
-5.09352
-5.12126
-5.14886
-5.17614
-5.20297
-5.22919
-5.25464
-5.2792
-5.30271
-5.32504
-5.34606
-5.36564
-5.38365
-5.39996
-5.41446
-5.427
-5.43748
-5.44578
-5.45178
-5.45536
-5.45641
-5.45483
-5.4505
-5.44333
-5.43321
-5.42005
-5.40377
-5.38426
-5.36146
-5.33529
-5.30568
-5.27257
-5.2359
-5.19562
-5.15168
-5.10404
-5.05268
-4.99755
-4.93864
-4.87592
-4.80937
-4.73904
-4.66493
-4.58709
-4.50553
-4.42028
-4.33135
-4.23878
-4.14261
-4.04288
-3.93965
-3.83296
-3.72288
-3.60949
-3.49284
-3.37302
-3.25012
-3.12422
-2.99541
-2.86379
-2.72946
-2.59252
-2.45309
-2.31128
-2.1672
-2.02098
-1.87272
-1.72257
-1.57063
-1.41706
-1.26197
-1.1055
-0.947787
-0.788967
-0.629178
-0.468561
-0.307256
-0.145405
0.0168513
0.17937
0.342009
0.504627
0.667083
0.829235
0.990945
1.15207
1.31249
1.47205
1.63063
1.7881
1.94433
2.09919
2.25258
2.40437
2.55445
2.70271
2.84905
2.99337
3.13558
3.2756
3.41333
3.54871
3.68166
3.81212
3.94002
4.06533
4.18801
4.308
4.42527
4.53978
4.6515
4.7604
4.8665
4.96977
5.0702
5.16777
5.2625
5.3544
5.44349
5.52978
5.6133
5.69408
5.77213
5.84751
5.92022
5.99032
6.05783
6.12279
6.18523
6.2452
6.30273
6.35788
6.41067
6.46116
6.50941
6.55549
6.59949
6.64151
6.68171
6.72033
6.7577
6.79434
6.83099
6.86921
6.90947
6.95905
6.99992
-4.68567
-4.69161
-4.69825
-4.70355
-4.70714
-4.70957
-4.71137
-4.71291
-4.71451
-4.71643
-4.71887
-4.72201
-4.72602
-4.73102
-4.73716
-4.74453
-4.75326
-4.76341
-4.77504
-4.7882
-4.80288
-4.81908
-4.83676
-4.85585
-4.87627
-4.89792
-4.9207
-4.94449
-4.96914
-4.99454
-5.02052
-5.04694
-5.07366
-5.10053
-5.12739
-5.15411
-5.18053
-5.20653
-5.23194
-5.25665
-5.2805
-5.30337
-5.32513
-5.34564
-5.36477
-5.38239
-5.39839
-5.41262
-5.42498
-5.43533
-5.44356
-5.44955
-5.45317
-5.45432
-5.45289
-5.44876
-5.44183
-5.432
-5.41917
-5.40325
-5.38416
-5.36181
-5.33612
-5.30702
-5.27445
-5.23835
-5.19866
-5.15535
-5.10835
-5.05766
-5.00322
-4.94503
-4.88306
-4.81731
-4.74779
-4.67452
-4.59752
-4.5168
-4.43239
-4.34431
-4.2526
-4.15729
-4.05843
-3.95606
-3.85024
-3.74103
-3.62849
-3.51271
-3.39375
-3.27169
-3.14663
-3.01866
-2.88786
-2.75435
-2.61822
-2.47958
-2.33855
-2.19523
-2.04975
-1.90222
-1.75277
-1.60153
-1.44862
-1.29418
-1.13834
-0.981227
-0.822985
-0.663749
-0.503658
-0.342853
-0.181474
-0.0196631
0.142439
0.304692
0.466953
0.629081
0.790937
0.952381
1.11328
1.27349
1.43288
1.59132
1.74868
1.90483
2.05966
2.21303
2.36484
2.51497
2.66332
2.80977
2.95424
3.09663
3.23685
3.37481
3.51045
3.64368
3.77446
3.90271
4.02839
4.15145
4.27184
4.38953
4.50446
4.61659
4.72592
4.83244
4.93616
5.03707
5.13514
5.23039
5.32282
5.41245
5.49929
5.58337
5.66471
5.74334
5.81928
5.89256
5.96323
6.0313
6.09683
6.15983
6.22035
6.27844
6.33412
6.38744
6.43846
6.48723
6.53382
6.57831
6.62081
6.66148
6.70054
6.73828
6.77517
6.81179
6.84936
6.88762
6.93241
6.96282
-4.67171
-4.67957
-4.6887
-4.69604
-4.70118
-4.7049
-4.70787
-4.71054
-4.71327
-4.71634
-4.71998
-4.72438
-4.72969
-4.73603
-4.74353
-4.75226
-4.7623
-4.7737
-4.78649
-4.80068
-4.81625
-4.83318
-4.85141
-4.87088
-4.89151
-4.91321
-4.93587
-4.9594
-4.98368
-5.00858
-5.03398
-5.05975
-5.08577
-5.1119
-5.13801
-5.16397
-5.18965
-5.21491
-5.23962
-5.26366
-5.28689
-5.30918
-5.3304
-5.35043
-5.36912
-5.38637
-5.40204
-5.416
-5.42813
-5.4383
-5.44639
-5.45229
-5.45587
-5.45701
-5.45561
-5.45155
-5.44473
-5.43504
-5.42238
-5.40667
-5.3878
-5.3657
-5.3403
-5.31151
-5.27927
-5.24352
-5.20421
-5.16129
-5.11472
-5.06446
-5.01048
-4.95277
-4.89132
-4.82611
-4.75714
-4.68444
-4.60801
-4.52787
-4.44404
-4.35655
-4.26542
-4.17071
-4.07244
-3.97068
-3.86546
-3.75686
-3.64493
-3.52976
-3.4114
-3.28996
-3.1655
-3.03813
-2.90793
-2.77501
-2.63947
-2.50141
-2.36095
-2.21819
-2.07326
-1.92628
-1.77736
-1.62664
-1.47424
-1.32029
-1.16492
-1.00827
-0.850467
-0.691656
-0.531973
-0.371556
-0.210547
-0.0490844
0.11269
0.274635
0.43661
0.598475
0.76009
0.921316
1.08202
1.24206
1.4013
1.55962
1.71688
1.87296
2.02773
2.18108
2.33288
2.48304
2.63143
2.77795
2.92251
3.06501
3.20537
3.3435
3.47932
3.61276
3.74376
3.87226
3.9982
4.12153
4.2422
4.36017
4.4754
4.58784
4.69748
4.80433
4.90838
5.00962
5.10806
5.20369
5.29652
5.38655
5.47381
5.55831
5.64008
5.71914
5.79552
5.86925
5.94035
6.00887
6.07483
6.13828
6.19924
6.25775
6.31386
6.36761
6.41904
6.46821
6.51519
6.56005
6.6029
6.64389
6.68319
6.72108
6.75794
6.79417
6.83063
6.86655
6.90689
6.92853
-4.66187
-4.67092
-4.6819
-4.69103
-4.69768
-4.70272
-4.70695
-4.71086
-4.71483
-4.71915
-4.72407
-4.72977
-4.73639
-4.74406
-4.75285
-4.76285
-4.77409
-4.7866
-4.80039
-4.81546
-4.83178
-4.8493
-4.86799
-4.88777
-4.90856
-4.9303
-4.95288
-4.9762
-5.00018
-5.02469
-5.04964
-5.0749
-5.10036
-5.12591
-5.15142
-5.17677
-5.20184
-5.22651
-5.25065
-5.27414
-5.29684
-5.31864
-5.33941
-5.35902
-5.37733
-5.39424
-5.40959
-5.42328
-5.43517
-5.44515
-5.45307
-5.45883
-5.4623
-5.46337
-5.46192
-5.45783
-5.45101
-5.44134
-5.42873
-5.41308
-5.3943
-5.37231
-5.34702
-5.31837
-5.28629
-5.25072
-5.2116
-5.16889
-5.12254
-5.07253
-5.01882
-4.9614
-4.90025
-4.83536
-4.76674
-4.69438
-4.61831
-4.53853
-4.45507
-4.36795
-4.27721
-4.18288
-4.08501
-3.98364
-3.87882
-3.77063
-3.65912
-3.54436
-3.42642
-3.3054
-3.18137
-3.05443
-2.92466
-2.79216
-2.65705
-2.51941
-2.37937
-2.23704
-2.09252
-1.94594
-1.79743
-1.6471
-1.49509
-1.34152
-1.18652
-1.03023
-0.87278
-0.714307
-0.554951
-0.394848
-0.234139
-0.0729634
0.0885383
0.250226
0.41196
0.573599
0.735004
0.896037
1.05656
1.21644
1.37555
1.53374
1.6909
1.84689
2.0016
2.15489
2.30667
2.45681
2.6052
2.75175
2.89635
3.03892
3.17936
3.31758
3.45352
3.58709
3.71824
3.8469
3.97301
4.09652
4.21739
4.33556
4.451
4.56366
4.67354
4.78063
4.88493
4.98644
5.08515
5.18106
5.27419
5.36453
5.45211
5.53694
5.61904
5.69844
5.77517
5.84925
5.9207
5.98958
6.05589
6.11969
6.18101
6.23987
6.29632
6.35041
6.40217
6.45166
6.49894
6.54408
6.58718
6.62836
6.66778
6.70565
6.74226
6.77784
6.81298
6.84647
6.88284
6.89714
-4.6576
-4.66712
-4.67913
-4.68951
-4.69739
-4.70361
-4.70899
-4.71405
-4.71918
-4.72467
-4.73076
-4.73763
-4.74542
-4.75424
-4.76414
-4.77519
-4.78742
-4.80084
-4.81544
-4.83121
-4.84812
-4.86612
-4.88517
-4.9052
-4.92614
-4.94791
-4.97043
-4.99362
-5.01738
-5.04161
-5.06623
-5.09111
-5.11617
-5.14128
-5.16634
-5.19124
-5.21585
-5.24007
-5.26377
-5.28683
-5.30912
-5.33053
-5.35093
-5.37019
-5.38819
-5.40479
-5.41987
-5.43331
-5.44498
-5.45474
-5.46248
-5.46807
-5.47139
-5.47233
-5.47076
-5.46657
-5.45966
-5.44992
-5.43725
-5.42155
-5.40274
-5.38072
-5.35543
-5.32678
-5.29472
-5.25917
-5.22009
-5.17744
-5.13116
-5.08124
-5.02763
-4.97033
-4.90932
-4.84458
-4.77612
-4.70394
-4.62805
-4.54846
-4.46519
-4.37828
-4.28775
-4.19365
-4.096
-3.99487
-3.8903
-3.78236
-3.6711
-3.55661
-3.43896
-3.31821
-3.19447
-3.06782
-2.93835
-2.80615
-2.67134
-2.53402
-2.39428
-2.25226
-2.10805
-1.96178
-1.81358
-1.66356
-1.51184
-1.35857
-1.20387
-1.04787
-0.890699
-0.732502
-0.573413
-0.413571
-0.253115
-0.0921825
0.0690855
0.23055
0.392072
0.553509
0.714725
0.875579
1.03594
1.19567
1.35463
1.5127
1.66974
1.82563
1.98025
2.13347
2.28519
2.43528
2.58365
2.73018
2.87479
3.01737
3.15783
3.2961
3.4321
3.56574
3.69697
3.82572
3.95194
4.07557
4.19656
4.31486
4.43044
4.54326
4.6533
4.76056
4.86505
4.96675
5.06566
5.16179
5.25514
5.34572
5.43354
5.51862
5.60098
5.68065
5.75765
5.832
5.90374
5.97289
6.03949
6.10358
6.16518
6.22432
6.28106
6.33542
6.38744
6.43719
6.4847
6.53004
6.5733
6.61458
6.65399
6.69171
6.72791
6.76269
6.79638
6.82748
6.86035
6.86852
-4.6591
-4.66846
-4.6807
-4.69172
-4.7004
-4.70751
-4.71381
-4.71982
-4.72591
-4.73237
-4.73943
-4.74727
-4.756
-4.76572
-4.77649
-4.78836
-4.80135
-4.81545
-4.83067
-4.84697
-4.86432
-4.88269
-4.90201
-4.92223
-4.94328
-4.9651
-4.9876
-5.0107
-5.03433
-5.05838
-5.08277
-5.1074
-5.13218
-5.157
-5.18175
-5.20632
-5.23062
-5.25451
-5.27789
-5.30064
-5.32263
-5.34375
-5.36386
-5.38285
-5.40059
-5.41694
-5.43179
-5.445
-5.45645
-5.46601
-5.47355
-5.47895
-5.48209
-5.48285
-5.48111
-5.47676
-5.46969
-5.4598
-5.44698
-5.43114
-5.41219
-5.39005
-5.36463
-5.33587
-5.3037
-5.26806
-5.2289
-5.18618
-5.13984
-5.08988
-5.03624
-4.97893
-4.91792
-4.8532
-4.78476
-4.71262
-4.63677
-4.55724
-4.47404
-4.3872
-4.29675
-4.20274
-4.1052
-4.00418
-3.89973
-3.79193
-3.68082
-3.56649
-3.449
-3.32843
-3.20488
-3.07842
-2.94915
-2.81717
-2.68257
-2.54547
-2.40597
-2.26417
-2.1202
-1.97417
-1.82621
-1.67643
-1.52496
-1.37193
-1.21746
-1.0617
-0.904771
-0.746808
-0.58795
-0.428333
-0.268097
-0.107381
0.0536773
0.214939
0.376264
0.537513
0.698548
0.85923
1.01942
1.179
1.33781
1.49574
1.65265
1.80843
1.96294
2.11607
2.2677
2.41772
2.56603
2.71251
2.85708
2.99963
3.14008
3.27835
3.41435
3.54801
3.67927
3.80806
3.93432
4.058
4.17906
4.29743
4.4131
4.52601
4.63617
4.74355
4.84816
4.94999
5.04905
5.14533
5.23884
5.32959
5.41759
5.50286
5.58542
5.66529
5.74249
5.81706
5.88902
5.9584
6.02523
6.08955
6.15138
6.21076
6.26772
6.3223
6.37453
6.42447
6.47215
6.51764
6.56099
6.60228
6.6416
6.67905
6.71473
6.74861
6.78082
6.80965
6.83943
6.84248
-4.66568
-4.67441
-4.6862
-4.69724
-4.70628
-4.71391
-4.72083
-4.72752
-4.73432
-4.74151
-4.7493
-4.75785
-4.76727
-4.77766
-4.78906
-4.80152
-4.81504
-4.82963
-4.84527
-4.86195
-4.87961
-4.89823
-4.91776
-4.93812
-4.95927
-4.98113
-5.00363
-5.0267
-5.05025
-5.07421
-5.09847
-5.12296
-5.14757
-5.1722
-5.19677
-5.22115
-5.24524
-5.26892
-5.29209
-5.31463
-5.33642
-5.35732
-5.37723
-5.39601
-5.41354
-5.42969
-5.44434
-5.45734
-5.46858
-5.47792
-5.48525
-5.49044
-5.49336
-5.4939
-5.49194
-5.48737
-5.48008
-5.46996
-5.45692
-5.44085
-5.42168
-5.39932
-5.37369
-5.34472
-5.31235
-5.27652
-5.23718
-5.19428
-5.14779
-5.09768
-5.04392
-4.98649
-4.92538
-4.86057
-4.79205
-4.71984
-4.64393
-4.56435
-4.48112
-4.39426
-4.3038
-4.20979
-4.11226
-4.01127
-3.90687
-3.79912
-3.68808
-3.57383
-3.45643
-3.33597
-3.21254
-3.08621
-2.95708
-2.82525
-2.69081
-2.55388
-2.41455
-2.27294
-2.12916
-1.98332
-1.83556
-1.68598
-1.53472
-1.3819
-1.22765
-1.0721
-0.915379
-0.757628
-0.59898
-0.439573
-0.279543
-0.119031
0.0418271
0.20289
0.36402
0.525079
0.685928
0.846432
1.00645
1.16586
1.32451
1.48229
1.63906
1.7947
1.94908
2.10209
2.25361
2.40353
2.55174
2.69813
2.84262
2.98511
3.1255
3.26372
3.39968
3.53331
3.66455
3.79333
3.91959
4.04327
4.16434
4.28274
4.39844
4.5114
4.62161
4.72906
4.83375
4.93567
5.03481
5.1312
5.22482
5.31569
5.40382
5.48922
5.57193
5.65196
5.72932
5.80406
5.87619
5.94575
6.01277
6.07727
6.13929
6.19885
6.256
6.31075
6.36316
6.41324
6.46105
6.50662
6.55001
6.59125
6.63041
6.66752
6.70261
6.73552
6.76627
6.79295
6.82003
6.81881
-4.67612
-4.68388
-4.69472
-4.70525
-4.7142
-4.72199
-4.72922
-4.73631
-4.74357
-4.75124
-4.75951
-4.76854
-4.77842
-4.78925
-4.80106
-4.81389
-4.82776
-4.84266
-4.85858
-4.87549
-4.89336
-4.91215
-4.93181
-4.95228
-4.9735
-4.99541
-5.01794
-5.04101
-5.06455
-5.08846
-5.11268
-5.13711
-5.16164
-5.1862
-5.21067
-5.23495
-5.25893
-5.28251
-5.30556
-5.32796
-5.34961
-5.37038
-5.39013
-5.40875
-5.42611
-5.44207
-5.45652
-5.46932
-5.48034
-5.48947
-5.49656
-5.5015
-5.50416
-5.50444
-5.5022
-5.49735
-5.48977
-5.47936
-5.46602
-5.44967
-5.4302
-5.40754
-5.38162
-5.35237
-5.31972
-5.28362
-5.24402
-5.20088
-5.15416
-5.10383
-5.04987
-4.99225
-4.93096
-4.86598
-4.79731
-4.72496
-4.64892
-4.56922
-4.48589
-4.39894
-4.30841
-4.21434
-4.11677
-4.01576
-3.91135
-3.8036
-3.69259
-3.57837
-3.46103
-3.34064
-3.21728
-3.09105
-2.96203
-2.83032
-2.69601
-2.55922
-2.42005
-2.2786
-2.13498
-1.98933
-1.84174
-1.69236
-1.54129
-1.38866
-1.23461
-1.07927
-0.922756
-0.765216
-0.606779
-0.447583
-0.287765
-0.127461
0.0331892
0.194046
0.354973
0.51583
0.676483
0.836793
0.996625
1.15584
1.31432
1.47192
1.62852
1.78399
1.93822
2.09107
2.24245
2.39223
2.54031
2.68658
2.83095
2.97333
3.11362
3.25175
3.38763
3.52119
3.65236
3.78108
3.90729
4.03093
4.15197
4.27035
4.38604
4.499
4.60923
4.7167
4.82142
4.92337
5.02257
5.11901
5.2127
5.30364
5.39186
5.47736
5.56018
5.64031
5.7178
5.79267
5.86494
5.93464
6.0018
6.06645
6.12862
6.18834
6.24564
6.30054
6.35308
6.40328
6.45117
6.49679
6.54016
6.58131
6.62025
6.65696
6.69141
6.72335
6.75267
6.77738
6.80207
6.7973
-4.68896
-4.69556
-4.70507
-4.71469
-4.72318
-4.73082
-4.73807
-4.7453
-4.75276
-4.76068
-4.76922
-4.77852
-4.78866
-4.79973
-4.81178
-4.82482
-4.83888
-4.85395
-4.87002
-4.88706
-4.90505
-4.92394
-4.94368
-4.96422
-4.9855
-5.00746
-5.03002
-5.05313
-5.07669
-5.10062
-5.12485
-5.14928
-5.17381
-5.19835
-5.2228
-5.24705
-5.27099
-5.29451
-5.31749
-5.33982
-5.36137
-5.38202
-5.40165
-5.42012
-5.43731
-5.45309
-5.46733
-5.47991
-5.49069
-5.49955
-5.50636
-5.51101
-5.51337
-5.51333
-5.51076
-5.50557
-5.49764
-5.48688
-5.47319
-5.45647
-5.43665
-5.41364
-5.38737
-5.35777
-5.32479
-5.28836
-5.24845
-5.20502
-5.15802
-5.10743
-5.05322
-4.99537
-4.93385
-4.86866
-4.79979
-4.72725
-4.65105
-4.5712
-4.48773
-4.40066
-4.31003
-4.21588
-4.11824
-4.01718
-3.91274
-3.80499
-3.69398
-3.57979
-3.46248
-3.34215
-3.21887
-3.09272
-2.96381
-2.83221
-2.69803
-2.56138
-2.42236
-2.28107
-2.13763
-1.99216
-1.84477
-1.69558
-1.54471
-1.39229
-1.23846
-1.08333
-0.927035
-0.769718
-0.611506
-0.452536
-0.292944
-0.132868
0.0275554
0.188186
0.348886
0.50952
0.669949
0.830039
0.989653
1.14866
1.30692
1.46431
1.62071
1.77599
1.93002
2.08268
2.23387
2.38348
2.53139
2.6775
2.82172
2.96394
3.1041
3.24209
3.37784
3.51128
3.64234
3.77096
3.89708
4.02064
4.1416
4.25991
4.37555
4.48847
4.59867
4.70613
4.81083
4.91279
5.012
5.10846
5.20217
5.29316
5.38143
5.46699
5.54987
5.63009
5.70767
5.78263
5.85501
5.92482
5.9921
6.05687
6.11917
6.17901
6.23643
6.29145
6.3441
6.39438
6.44234
6.48797
6.53129
6.57231
6.61099
6.64728
6.68106
6.71203
6.73999
6.76289
6.78546
6.77776
-4.70275
-4.70808
-4.71607
-4.72447
-4.73222
-4.73942
-4.74645
-4.75359
-4.76105
-4.76903
-4.77765
-4.78705
-4.79729
-4.80846
-4.8206
-4.83372
-4.84786
-4.86299
-4.87912
-4.89621
-4.91425
-4.93318
-4.95296
-4.97354
-4.99486
-5.01687
-5.03948
-5.06262
-5.08623
-5.11021
-5.13447
-5.15893
-5.1835
-5.20806
-5.23251
-5.25676
-5.28068
-5.30416
-5.32709
-5.34934
-5.37079
-5.39131
-5.41079
-5.42909
-5.44608
-5.46163
-5.47563
-5.48793
-5.49842
-5.50697
-5.51345
-5.51774
-5.51974
-5.51931
-5.51636
-5.51077
-5.50244
-5.49127
-5.47717
-5.46005
-5.43982
-5.41641
-5.38976
-5.35979
-5.32644
-5.28967
-5.24943
-5.20568
-5.15839
-5.10753
-5.05305
-4.99494
-4.93318
-4.86776
-4.79868
-4.72595
-4.64957
-4.56956
-4.48595
-4.39877
-4.30804
-4.21381
-4.11612
-4.01502
-3.91057
-3.80282
-3.69183
-3.57768
-3.46044
-3.34018
-3.21699
-3.09096
-2.96216
-2.83071
-2.69668
-2.5602
-2.42135
-2.28025
-2.13701
-1.99174
-1.84456
-1.69559
-1.54496
-1.39278
-1.23918
-1.08429
-0.928249
-0.771184
-0.613228
-0.454515
-0.295183
-0.135366
0.0247956
0.185165
0.345605
0.505978
0.666149
0.825981
0.985339
1.14409
1.3021
1.45925
1.6154
1.77044
1.92423
2.07667
2.22764
2.37702
2.52472
2.67062
2.81464
2.95668
3.09664
3.23445
3.37004
3.50332
3.63422
3.76269
3.88868
4.01211
4.13295
4.25116
4.36671
4.47955
4.58968
4.69708
4.80174
4.90366
5.00284
5.09929
5.193
5.284
5.37228
5.45787
5.54079
5.62106
5.6987
5.77374
5.84619
5.91609
5.98347
6.04834
6.11074
6.17069
6.22821
6.28333
6.33606
6.38641
6.4344
6.48003
6.52328
6.56414
6.60254
6.63838
6.6715
6.70152
6.7282
6.74945
6.77013
6.76003
-4.71613
-4.7202
-4.72656
-4.73359
-4.74037
-4.74694
-4.75355
-4.76042
-4.76771
-4.77559
-4.78416
-4.79352
-4.80375
-4.8149
-4.82703
-4.84014
-4.85426
-4.86938
-4.8855
-4.90258
-4.9206
-4.93953
-4.95931
-4.9799
-5.00123
-5.02326
-5.04589
-5.06907
-5.0927
-5.11671
-5.141
-5.16548
-5.19005
-5.21461
-5.23905
-5.26326
-5.28712
-5.31053
-5.33335
-5.35547
-5.37676
-5.3971
-5.41636
-5.43441
-5.45113
-5.46639
-5.48006
-5.49202
-5.50214
-5.5103
-5.51638
-5.52026
-5.52182
-5.52096
-5.51757
-5.51153
-5.50276
-5.49115
-5.47661
-5.45906
-5.43841
-5.4146
-5.38755
-5.3572
-5.3235
-5.28639
-5.24584
-5.2018
-5.15424
-5.10311
-5.04838
-4.99003
-4.92804
-4.86242
-4.79315
-4.72025
-4.64372
-4.56359
-4.47988
-4.39261
-4.30183
-4.20756
-4.10986
-4.00876
-3.90434
-3.79663
-3.68571
-3.57165
-3.45451
-3.33438
-3.21133
-3.08544
-2.95682
-2.82555
-2.69172
-2.55544
-2.41681
-2.27595
-2.13295
-1.98793
-1.84101
-1.69231
-1.54195
-1.39005
-1.23674
-1.08214
-0.926393
-0.769625
-0.611969
-0.453559
-0.294531
-0.135021
0.0248339
0.184896
0.345029
0.505096
0.664961
0.824489
0.983545
1.142
1.29971
1.45657
1.61243
1.76718
1.92069
2.07285
2.22354
2.37266
2.52009
2.66575
2.80951
2.95131
3.09104
3.22863
3.364
3.49707
3.62778
3.75606
3.88186
4.00513
4.12581
4.24388
4.35929
4.47201
4.58204
4.68934
4.79393
4.89578
4.9949
5.0913
5.18498
5.27595
5.36423
5.44982
5.53276
5.61305
5.69073
5.76581
5.83832
5.90829
5.97574
6.0407
6.10318
6.16322
6.22084
6.27604
6.32884
6.37925
6.42726
6.47286
6.51603
6.55671
6.59482
6.63021
6.66267
6.69178
6.71726
6.73702
6.756
6.74397
-4.72797
-4.73085
-4.7356
-4.74115
-4.74684
-4.75263
-4.75868
-4.76515
-4.77215
-4.77981
-4.78821
-4.79745
-4.80757
-4.81864
-4.83068
-4.84371
-4.85775
-4.87279
-4.88882
-4.90582
-4.92377
-4.94262
-4.96234
-4.98287
-5.00415
-5.02612
-5.04871
-5.07184
-5.09543
-5.11939
-5.14362
-5.16804
-5.19253
-5.217
-5.24132
-5.26539
-5.2891
-5.31231
-5.33492
-5.3568
-5.37782
-5.39787
-5.4168
-5.43451
-5.45086
-5.46573
-5.47899
-5.49052
-5.5002
-5.50791
-5.51352
-5.51694
-5.51803
-5.5167
-5.51284
-5.50634
-5.49711
-5.48505
-5.47008
-5.45212
-5.43108
-5.40688
-5.37948
-5.34879
-5.31478
-5.27739
-5.23658
-5.19231
-5.14451
-5.09316
-5.03822
-4.97967
-4.91752
-4.85174
-4.78235
-4.70935
-4.63274
-4.55256
-4.46881
-4.38153
-4.29076
-4.19653
-4.09888
-3.99787
-3.89354
-3.78595
-3.67518
-3.56127
-3.44431
-3.32437
-3.20152
-3.07587
-2.94748
-2.81646
-2.6829
-2.5469
-2.40856
-2.26799
-2.1253
-1.9806
-1.834
-1.68563
-1.5356
-1.38404
-1.23108
-1.07683
-0.921438
-0.765027
-0.60773
-0.449682
-0.291016
-0.13187
0.0276206
0.187319
0.347088
0.506792
0.666295
0.825463
0.984161
1.14226
1.29962
1.45612
1.61164
1.76605
1.91922
2.07105
2.22142
2.37022
2.51734
2.66269
2.80616
2.94766
3.08711
3.22443
3.35953
3.49235
3.62281
3.75086
3.87644
3.9995
4.11999
4.23787
4.3531
4.46568
4.57556
4.68274
4.7872
4.88895
4.98799
5.08431
5.17793
5.26885
5.35709
5.44267
5.5256
5.60589
5.68359
5.7587
5.83125
5.90127
5.96879
6.03381
6.09638
6.1565
6.21419
6.26946
6.32233
6.37278
6.4208
6.46638
6.50945
6.54995
6.58777
6.62271
6.65454
6.6828
6.70717
6.72558
6.74301
6.72947
-4.73774
-4.73967
-4.74282
-4.74686
-4.75135
-4.75624
-4.76161
-4.76755
-4.77415
-4.78148
-4.78963
-4.79865
-4.80858
-4.81947
-4.83133
-4.84418
-4.85802
-4.87287
-4.88869
-4.90549
-4.92322
-4.94185
-4.96135
-4.98166
-5.00272
-5.02447
-5.04685
-5.06976
-5.09312
-5.11686
-5.14086
-5.16503
-5.18926
-5.21345
-5.23748
-5.26124
-5.28462
-5.30748
-5.32971
-5.3512
-5.3718
-5.39142
-5.4099
-5.42715
-5.44302
-5.4574
-5.47017
-5.4812
-5.49037
-5.49758
-5.5027
-5.50562
-5.50623
-5.50442
-5.5001
-5.49315
-5.4835
-5.47104
-5.45568
-5.43736
-5.41598
-5.39148
-5.3638
-5.33287
-5.29865
-5.26108
-5.22011
-5.17568
-5.12772
-5.07622
-5.02117
-4.96253
-4.9003
-4.83448
-4.76506
-4.69206
-4.61548
-4.53535
-4.45168
-4.3645
-4.27385
-4.17976
-4.08228
-3.98145
-3.87733
-3.76997
-3.65944
-3.54579
-3.42911
-3.30947
-3.18693
-3.0616
-2.93355
-2.80288
-2.66968
-2.53406
-2.3961
-2.25592
-2.11363
-1.96933
-1.82315
-1.6752
-1.52559
-1.37446
-1.22193
-1.06812
-0.91316
-0.757188
-0.600331
-0.442724
-0.284501
-0.125798
0.0332509
0.192508
0.351837
0.511103
0.67017
0.828904
0.987171
1.14484
1.30178
1.45786
1.61297