/*--------------------------------*- C++ -*----------------------------------*\
| =========                 |                                                 |
| \\      /  F ield         | OpenFOAM: The Open Source CFD Toolbox           |
|  \\    /   O peration     | Version:  2412                                  |
|   \\  /    A nd           | Website:  www.openfoam.com                      |
|    \\/     M anipulation  |                                                 |
\*---------------------------------------------------------------------------*/
FoamFile
{
    version     2.0;
    format      ascii;
    arch        "LSB;label=32;scalar=64";
    class       surfaceScalarField;
    location    "0.24";
    object      phi;
}
// * * * * * * * * * * * * * * * * * * * * * * * * * * * * * * * * * * * * * //

dimensions      [0 3 -1 0 0 0 0];

oriented        oriented;

internalField   nonuniform List<scalar> 
24170
(
1.36706e-07
-5.71619e-08
1.95622e-07
-5.89156e-08
2.5792e-07
-6.22983e-08
3.11676e-07
-5.37562e-08
3.61816e-07
-5.014e-08
4.07928e-07
-4.61117e-08
4.49576e-07
-4.16485e-08
4.87103e-07
-3.7527e-08
5.20895e-07
-3.37914e-08
5.51288e-07
-3.0393e-08
5.78607e-07
-2.73191e-08
6.03144e-07
-2.45367e-08
6.2514e-07
-2.19968e-08
6.44773e-07
-1.96327e-08
6.62177e-07
-1.74044e-08
6.77224e-07
-1.50468e-08
6.89911e-07
-1.26866e-08
-8.0332e-09
6.97944e-07
3.26112e-07
-1.24822e-07
3.94133e-07
-1.26937e-07
4.55889e-07
-1.24054e-07
5.14189e-07
-1.12057e-07
5.67686e-07
-1.03636e-07
6.16644e-07
-9.50703e-08
6.61288e-07
-8.62927e-08
7.01842e-07
-7.80806e-08
7.38602e-07
-7.05513e-08
7.71888e-07
-6.36794e-08
8.02007e-07
-5.74376e-08
8.29231e-07
-5.17611e-08
8.53793e-07
-4.65588e-08
8.75872e-07
-4.17116e-08
8.95581e-07
-3.71131e-08
9.12917e-07
-3.23824e-08
9.27969e-07
-2.77395e-08
-1.99352e-08
9.39871e-07
5.17245e-07
-1.71611e-07
5.79152e-07
-1.88844e-07
6.38213e-07
-1.83115e-07
6.95372e-07
-1.69215e-07
7.48187e-07
-1.56451e-07
7.96794e-07
-1.43678e-07
8.41441e-07
-1.3094e-07
8.82263e-07
-1.18902e-07
9.19475e-07
-1.07764e-07
9.53341e-07
-9.75461e-08
9.84123e-07
-8.82195e-08
1.01206e-06
-7.96986e-08
1.03736e-06
-7.1861e-08
1.0602e-06
-6.45484e-08
1.08068e-06
-5.75905e-08
1.0989e-06
-5.06052e-08
1.11469e-06
-4.3526e-08
-3.34943e-08
1.12825e-06
7.4348e-07
-1.95421e-07
7.91922e-07
-2.37285e-07
8.43833e-07
-2.35026e-07
8.96367e-07
-2.2175e-07
9.46032e-07
-2.06116e-07
9.92314e-07
-1.89959e-07
1.03523e-06
-1.73855e-07
1.07478e-06
-1.58452e-07
1.11107e-06
-1.44057e-07
1.14429e-06
-1.30762e-07
1.17462e-06
-1.18553e-07
1.20227e-06
-1.07343e-07
1.2274e-06
-9.6991e-08
1.25016e-06
-8.73138e-08
1.27067e-06
-7.80973e-08
1.28903e-06
-6.8966e-08
1.30515e-06
-5.96452e-08
-4.80229e-08
1.31968e-06
1.01492e-06
-1.99876e-07
1.04731e-06
-2.6967e-07
1.08854e-06
-2.76254e-07
1.1334e-06
-2.66614e-07
1.17753e-06
-2.50246e-07
1.21953e-06
-2.31959e-07
1.25903e-06
-2.1335e-07
1.29582e-06
-1.95248e-07
1.32988e-06
-1.78119e-07
1.36128e-06
-1.62157e-07
1.39012e-06
-1.47394e-07
1.41654e-06
-1.33758e-07
1.44066e-06
-1.2111e-07
1.4626e-06
-1.09257e-07
1.48247e-06
-9.79655e-08
1.50038e-06
-8.68813e-08
1.51639e-06
-7.5655e-08
-6.28225e-08
1.53119e-06
1.33808e-06
-1.90517e-07
1.35427e-06
-2.85857e-07
1.38245e-06
-3.04438e-07
1.41696e-06
-3.01125e-07
1.45317e-06
-2.86454e-07
1.48885e-06
-2.67634e-07
1.52314e-06
-2.47642e-07
1.5556e-06
-2.27714e-07
1.58603e-06
-2.08546e-07
1.61435e-06
-1.90478e-07
1.64058e-06
-1.73618e-07
1.66475e-06
-1.57935e-07
1.68695e-06
-1.43312e-07
1.70726e-06
-1.29567e-07
1.72577e-06
-1.16471e-07
1.7426e-06
-1.03711e-07
1.75789e-06
-9.09491e-08
-7.72106e-08
1.77228e-06
1.71767e-06
-1.72907e-07
1.7193e-06
-2.87488e-07
1.73353e-06
-3.18671e-07
1.75572e-06
-3.23314e-07
1.78184e-06
-3.12572e-07
1.80918e-06
-2.94974e-07
1.83645e-06
-2.74908e-07
1.86293e-06
-2.54202e-07
1.88824e-06
-2.33848e-07
1.91213e-06
-2.14375e-07
1.93452e-06
-1.96003e-07
1.95535e-06
-1.7877e-07
1.97464e-06
-1.626e-07
1.99242e-06
-1.47344e-07
2.00875e-06
-1.32801e-07
2.02375e-06
-1.18715e-07
2.03761e-06
-1.04805e-07
-9.04537e-08
2.05085e-06
2.15734e-06
-1.51553e-07
2.14717e-06
-2.77327e-07
2.14805e-06
-3.19546e-07
2.15705e-06
-3.32313e-07
2.17149e-06
-3.27008e-07
2.18875e-06
-3.12241e-07
2.20729e-06
-2.93446e-07
2.22619e-06
-2.73102e-07
2.24487e-06
-2.52526e-07
2.26296e-06
-2.32463e-07
2.28023e-06
-2.13277e-07
2.29656e-06
-1.95094e-07
2.31186e-06
-1.77905e-07
2.32613e-06
-1.61612e-07
2.33939e-06
-1.46061e-07
2.35174e-06
-1.31061e-07
2.36334e-06
-1.16413e-07
-1.01753e-07
2.37464e-06
2.66011e-06
-1.29475e-07
2.64127e-06
-2.58485e-07
2.63057e-06
-3.08849e-07
2.6268e-06
-3.2854e-07
2.62889e-06
-3.29099e-07
2.63493e-06
-3.18282e-07
2.64341e-06
-3.01923e-07
2.65333e-06
-2.83029e-07
2.66402e-06
-2.63215e-07
2.67499e-06
-2.43434e-07
2.68592e-06
-2.24199e-07
2.69657e-06
-2.05746e-07
2.70681e-06
-1.88145e-07
2.71656e-06
-1.71363e-07
2.72581e-06
-1.5531e-07
2.73461e-06
-1.39864e-07
2.74311e-06
-1.24911e-07
-1.10266e-07
2.75162e-06
3.22874e-06
-1.08352e-07
3.204e-06
-2.33751e-07
3.18408e-06
-2.88924e-07
3.16904e-06
-3.13506e-07
3.15923e-06
-3.1929e-07
3.15377e-06
-3.12818e-07
3.1515e-06
-2.9965e-07
3.15153e-06
-2.83064e-07
3.1532e-06
-2.64884e-07
3.15598e-06
-2.46213e-07
3.15948e-06
-2.27696e-07
3.16341e-06
-2.09676e-07
3.16757e-06
-1.92309e-07
3.17184e-06
-1.75634e-07
3.17616e-06
-1.59626e-07
3.18053e-06
-1.44235e-07
3.18505e-06
-1.29429e-07
-1.15139e-07
3.18992e-06
3.8657e-06
-8.90286e-08
3.83718e-06
-2.05225e-07
3.81025e-06
-2.62001e-07
3.78607e-06
-2.89318e-07
3.76578e-06
-2.99007e-07
3.74952e-06
-2.96551e-07
3.73665e-06
-2.86786e-07
3.72657e-06
-2.72985e-07
3.71874e-06
-2.57052e-07
3.71269e-06
-2.4016e-07
3.70803e-06
-2.23034e-07
3.70445e-06
-2.06101e-07
3.70173e-06
-1.89592e-07
3.69971e-06
-1.73613e-07
3.69829e-06
-1.58206e-07
3.69743e-06
-1.43377e-07
3.69717e-06
-1.2917e-07
-1.15581e-07
3.69762e-06
3.81123e-06
-7.33562e-08
3.78552e-06
-1.79512e-07
3.75883e-06
-2.35316e-07
3.733e-06
-2.63483e-07
3.70932e-06
-2.75329e-07
3.68839e-06
-2.75618e-07
3.6701e-06
-2.68501e-07
3.65421e-06
-2.57086e-07
3.64041e-06
-2.43259e-07
3.62844e-06
-2.28185e-07
3.61801e-06
-2.1261e-07
3.60891e-06
-1.97e-07
3.60095e-06
-1.81628e-07
3.59398e-06
-1.66648e-07
3.58792e-06
-1.5214e-07
3.5827e-06
-1.3816e-07
3.57828e-06
-1.24745e-07
-1.12138e-07
3.57483e-06
5.03713e-06
-5.7725e-08
5.00707e-06
-1.49455e-07
4.97361e-06
-2.01857e-07
4.93953e-06
-2.294e-07
4.90653e-06
-2.42335e-07
4.87577e-06
-2.44851e-07
4.84753e-06
-2.40264e-07
4.8218e-06
-2.31352e-07
4.79845e-06
-2.19917e-07
4.77733e-06
-2.07064e-07
4.75824e-06
-1.93513e-07
4.74097e-06
-1.79734e-07
4.72536e-06
-1.66022e-07
4.71128e-06
-1.52562e-07
4.6986e-06
-1.39466e-07
4.68726e-06
-1.2682e-07
4.67721e-06
-1.14688e-07
-1.0341e-07
4.66848e-06
6.66244e-06
-4.26911e-08
6.62913e-06
-1.16146e-07
6.58917e-06
-1.61904e-07
6.54671e-06
-1.86935e-07
6.50387e-06
-1.99494e-07
6.46231e-06
-2.03296e-07
6.42284e-06
-2.00791e-07
6.38572e-06
-1.94231e-07
6.35104e-06
-1.85238e-07
6.3188e-06
-1.74822e-07
6.28892e-06
-1.63634e-07
6.26129e-06
-1.52111e-07
6.23581e-06
-1.40542e-07
6.21237e-06
-1.29118e-07
6.19087e-06
-1.17965e-07
6.17123e-06
-1.07183e-07
6.1534e-06
-9.68509e-08
-8.73343e-08
6.13732e-06
8.79086e-06
-2.88896e-08
8.75646e-06
-8.17456e-08
8.71176e-06
-1.172e-07
8.66209e-06
-1.37263e-07
8.61015e-06
-1.47558e-07
8.55807e-06
-1.51215e-07
8.50721e-06
-1.49936e-07
8.45827e-06
-1.45283e-07
8.41157e-06
-1.38542e-07
8.36731e-06
-1.30564e-07
8.32557e-06
-1.21888e-07
8.28634e-06
-1.12884e-07
8.2496e-06
-1.03805e-07
8.21531e-06
-9.48252e-08
8.18341e-06
-8.60649e-08
8.15384e-06
-7.76168e-08
8.12654e-06
-6.95492e-08
-6.22394e-08
8.10145e-06
1.15181e-05
-1.66168e-08
1.14848e-05
-4.84462e-08
1.14384e-05
-7.07992e-08
1.13845e-05
-8.34393e-08
1.13265e-05
-8.94775e-08
1.12665e-05
-9.12278e-08
1.12064e-05
-8.98348e-08
1.11473e-05
-8.62124e-08
1.10899e-05
-8.11919e-08
1.10347e-05
-7.53667e-08
1.0982e-05
-6.91123e-08
1.09318e-05
-6.26794e-08
1.08842e-05
-5.62475e-08
1.08393e-05
-4.99443e-08
1.07971e-05
-4.38633e-08
1.07576e-05
-3.80817e-08
1.07207e-05
-3.26265e-08
-2.7881e-08
1.06863e-05
1.48842e-05
-5.4106e-09
1.48525e-05
-1.6731e-08
1.48063e-05
-2.45735e-08
1.47511e-05
-2.8215e-08
1.46904e-05
-2.88186e-08
1.46267e-05
-2.75534e-08
1.45619e-05
-2.50082e-08
1.44973e-05
-2.15799e-08
1.44337e-05
-1.76487e-08
1.43719e-05
-1.35085e-08
1.43121e-05
-9.34374e-09
1.42547e-05
-5.27252e-09
1.41998e-05
-1.38538e-09
1.41476e-05
2.27323e-09
1.40981e-05
5.64794e-09
1.40513e-05
8.69285e-09
1.40073e-05
1.14386e-08
1.35349e-08
1.39658e-05
1.8769e-05
6.26473e-09
1.87365e-05
1.58029e-08
1.86883e-05
2.36176e-08
1.86301e-05
2.99764e-08
1.85661e-05
3.52201e-08
1.84989e-05
3.96138e-08
1.84306e-05
4.33244e-08
1.83625e-05
4.6475e-08
1.82957e-05
4.91602e-08
1.82308e-05
5.14464e-08
1.8168e-05
5.33779e-08
1.81078e-05
5.49847e-08
1.80501e-05
5.62867e-08
1.79951e-05
5.72949e-08
1.79427e-05
5.80152e-08
1.7893e-05
5.84349e-08
1.78458e-05
5.8613e-08
5.82895e-08
1.7801e-05
2.26768e-05
1.69958e-08
2.26398e-05
5.2758e-08
2.25834e-05
8.00199e-08
2.25148e-05
9.85779e-08
2.24391e-05
1.10926e-07
2.23597e-05
1.19071e-07
2.22789e-05
1.2407e-07
2.21987e-05
1.26702e-07
2.21202e-05
1.27664e-07
2.20442e-05
1.27477e-07
2.19711e-05
1.26483e-07
2.19011e-05
1.24908e-07
2.18345e-05
1.22912e-07
2.17712e-05
1.20608e-07
2.17111e-05
1.18073e-07
2.16542e-05
1.15354e-07
2.16003e-05
1.12513e-07
1.09408e-07
2.15492e-05
1.5604e-05
3.26421e-08
1.55641e-05
9.26192e-08
1.55091e-05
1.35036e-07
1.54456e-05
1.62015e-07
1.53777e-05
1.78857e-07
1.5308e-05
1.88777e-07
1.52386e-05
1.93494e-07
1.51708e-05
1.94467e-07
1.51055e-05
1.92939e-07
1.50432e-05
1.89775e-07
1.49842e-05
1.85538e-07
1.49285e-05
1.80614e-07
1.48761e-05
1.75277e-07
1.4827e-05
1.69718e-07
1.4781e-05
1.64068e-07
1.47379e-05
1.58418e-07
1.46976e-05
1.52831e-07
1.47247e-07
1.46598e-05
1.23902e-05
5.12347e-08
1.23448e-05
1.38095e-07
1.22864e-05
1.93398e-07
1.22225e-05
2.25903e-07
1.21566e-05
2.44758e-07
1.20913e-05
2.54078e-07
1.20284e-05
2.56397e-07
1.19688e-05
2.54044e-07
1.1913e-05
2.48775e-07
1.18611e-05
2.41712e-07
1.1813e-05
2.33581e-07
1.17687e-05
2.24881e-07
1.17281e-05
2.15954e-07
1.16908e-05
2.07027e-07
1.16566e-05
1.98246e-07
1.16253e-05
1.89711e-07
1.15967e-05
1.81465e-07
1.73496e-07
1.15704e-05
9.55928e-06
7.55428e-08
9.50978e-06
1.87599e-07
9.45371e-06
2.4947e-07
9.39689e-06
2.8272e-07
9.34169e-06
2.99954e-07
9.29011e-06
3.05659e-07
9.2431e-06
3.03414e-07
9.20078e-06
2.96359e-07
9.16302e-06
2.86536e-07
9.12955e-06
2.75178e-07
9.10005e-06
2.63082e-07
9.07415e-06
2.50781e-07
9.05149e-06
2.38615e-07
9.03173e-06
2.26794e-07
9.01453e-06
2.15438e-07
8.99963e-06
2.04617e-07
8.98674e-06
1.94349e-07
1.84637e-07
8.9756e-06
7.18003e-06
1.04962e-07
7.13264e-06
2.34993e-07
7.08699e-06
2.95114e-07
7.04542e-06
3.24297e-07
7.00919e-06
3.36182e-07
6.97925e-06
3.35597e-07
6.95528e-06
3.2739e-07
6.93649e-06
3.1514e-07
6.92217e-06
3.00856e-07
6.91165e-06
2.85706e-07
6.9043e-06
2.70432e-07
6.89959e-06
2.55488e-07
6.89707e-06
2.41133e-07
6.89636e-06
2.27502e-07
6.89715e-06
2.14654e-07
6.89916e-06
2.02606e-07
6.90217e-06
1.91335e-07
1.80838e-07
6.90597e-06
5.24556e-06
1.3812e-07
5.20786e-06
2.72692e-07
5.18042e-06
3.22547e-07
5.16161e-06
3.43114e-07
5.15134e-06
3.46451e-07
5.14856e-06
3.38373e-07
5.15145e-06
3.24503e-07
5.1585e-06
3.08088e-07
5.16862e-06
2.90739e-07
5.18095e-06
2.73375e-07
5.19483e-06
2.56548e-07
5.20977e-06
2.40552e-07
5.22538e-06
2.25523e-07
5.24138e-06
2.11501e-07
5.25756e-06
1.98477e-07
5.27375e-06
1.86412e-07
5.28984e-06
1.75248e-07
1.64971e-07
5.30571e-06
3.71461e-06
1.71643e-07
3.69607e-06
2.91237e-07
3.69442e-06
3.24197e-07
3.70434e-06
3.33195e-07
3.72341e-06
3.27378e-07
3.74838e-06
3.13402e-07
3.77668e-06
2.962e-07
3.80677e-06
2.78001e-07
3.83764e-06
2.59863e-07
3.86863e-06
2.42392e-07
3.89926e-06
2.25914e-07
3.92925e-06
2.10563e-07
3.95841e-06
1.96367e-07
3.98662e-06
1.83294e-07
4.01381e-06
1.7128e-07
4.03998e-06
1.60249e-07
4.0651e-06
1.50126e-07
1.40893e-07
4.08917e-06
2.5354e-06
1.96844e-07
2.54624e-06
2.80392e-07
2.57485e-06
2.95583e-07
2.61417e-06
2.93877e-07
2.65963e-06
2.81924e-07
2.70723e-06
2.65801e-07
2.75495e-06
2.4848e-07
2.80179e-06
2.31162e-07
2.84715e-06
2.14497e-07
2.89071e-06
1.98837e-07
2.93229e-06
1.84331e-07
2.97185e-06
1.71005e-07
3.0094e-06
1.5882e-07
3.04499e-06
1.47702e-07
3.0787e-06
1.37566e-07
3.11063e-06
1.28321e-07
3.14087e-06
1.19886e-07
1.12261e-07
3.1695e-06
1.65469e-06
1.99257e-07
1.70056e-06
2.34526e-07
1.75707e-06
2.39071e-07
1.81981e-06
2.31139e-07
1.88376e-06
2.17977e-07
1.94595e-06
2.03607e-07
2.00552e-06
1.88907e-07
2.06211e-06
1.74577e-07
2.11552e-06
1.61084e-07
2.16575e-06
1.48607e-07
2.2129e-06
1.37186e-07
2.2571e-06
1.26798e-07
2.29855e-06
1.17377e-07
2.33741e-06
1.0884e-07
2.37388e-06
1.01101e-07
2.40812e-06
9.40777e-08
2.44031e-06
8.76911e-08
8.19785e-08
2.4706e-06
1.01827e-06
1.63846e-07
1.09488e-06
1.57921e-07
1.17023e-06
1.63716e-07
1.24668e-06
1.54691e-07
1.32007e-06
1.4459e-07
1.38904e-06
1.34633e-07
1.45366e-06
1.24284e-07
1.51399e-06
1.14252e-07
1.57012e-06
1.04951e-07
1.62228e-06
9.64451e-08
1.67075e-06
8.87226e-08
1.7158e-06
8.17482e-08
1.75771e-06
7.54627e-08
1.79675e-06
6.97967e-08
1.83317e-06
6.46826e-08
1.86719e-06
6.00595e-08
1.89903e-06
5.58482e-08
5.21241e-08
1.92889e-06
5.69236e-07
8.45264e-08
6.58979e-07
6.81779e-08
7.40757e-07
8.19382e-08
8.20847e-07
7.46009e-08
8.9584e-07
6.95975e-08
9.65386e-07
6.50872e-08
1.0298e-06
5.98709e-08
1.0893e-06
5.47549e-08
1.14416e-06
5.00888e-08
1.19474e-06
4.58619e-08
1.24142e-06
4.20449e-08
1.28455e-06
3.86172e-08
1.32447e-06
3.5545e-08
1.36148e-06
3.27884e-08
1.39585e-06
3.03091e-08
1.42783e-06
2.80786e-08
1.45765e-06
2.60246e-08
2.41962e-08
1.48558e-06
2.22451e-07
2.90628e-07
3.72567e-07
4.47168e-07
5.16765e-07
5.81852e-07
6.41723e-07
6.96478e-07
7.46567e-07
7.92429e-07
8.34474e-07
8.73091e-07
9.08636e-07
9.41424e-07
9.71733e-07
9.99812e-07
1.02584e-06
1.05003e-06
1.8557e-08
-1.8557e-08
4.19239e-08
-2.33668e-08
6.22204e-08
-2.02965e-08
7.697e-08
-1.47496e-08
8.52915e-08
-8.32157e-09
8.71655e-08
-1.87397e-09
8.3176e-08
3.98948e-09
7.43508e-08
8.82523e-09
6.17864e-08
1.25644e-08
4.63577e-08
1.54288e-08
2.85957e-08
1.7762e-08
8.71384e-09
1.98819e-08
-1.33153e-08
2.20291e-08
-3.76744e-08
2.43591e-08
-6.4599e-08
2.69246e-08
-9.43129e-08
2.97139e-08
-1.26995e-07
3.26823e-08
-1.62757e-07
3.57613e-08
-2.01627e-07
3.88702e-08
-2.43551e-07
4.19238e-08
-2.88388e-07
4.48375e-08
-3.35921e-07
4.75333e-08
-3.85866e-07
4.99441e-08
-4.37883e-07
5.20175e-08
-4.91601e-07
5.37179e-08
-5.46628e-07
5.5027e-08
-6.02571e-07
5.59434e-08
-6.59052e-07
5.64802e-08
-7.15716e-07
5.6664e-08
-7.72251e-07
5.65358e-08
-8.284e-07
5.61489e-08
-8.83956e-07
5.55555e-08
-9.38745e-07
5.47894e-08
-9.92622e-07
5.3877e-08
-1.04547e-06
5.28458e-08
-1.09719e-06
5.17211e-08
-1.14771e-06
5.05254e-08
-1.19699e-06
4.92782e-08
-1.24499e-06
4.79954e-08
-1.29168e-06
4.669e-08
-1.33705e-06
4.5372e-08
-1.3811e-06
4.40487e-08
-1.42382e-06
4.27253e-08
-1.46523e-06
4.14051e-08
-1.50532e-06
4.00901e-08
-1.5441e-06
3.87809e-08
-1.58158e-06
3.74775e-08
-1.61776e-06
3.61793e-08
-1.65264e-06
3.48851e-08
-1.68624e-06
3.35938e-08
-1.71854e-06
3.23039e-08
-1.74955e-06
3.10142e-08
-1.77928e-06
2.97232e-08
-1.80771e-06
2.843e-08
-1.83484e-06
2.71335e-08
-1.86067e-06
2.5833e-08
-1.8852e-06
2.45278e-08
-1.90842e-06
2.32174e-08
-1.93032e-06
2.19016e-08
-1.9509e-06
2.058e-08
-1.97015e-06
1.92525e-08
-1.98807e-06
1.7919e-08
-2.00465e-06
1.6579e-08
-2.01988e-06
1.52322e-08
-2.03376e-06
1.38778e-08
-2.04628e-06
1.25146e-08
-2.05742e-06
1.11407e-08
-2.06717e-06
9.75247e-09
-2.07551e-06
8.34607e-09
-2.08243e-06
6.91619e-09
-2.08789e-06
5.4555e-09
-2.09184e-06
3.95495e-09
-2.09425e-06
2.41018e-09
-2.09506e-06
8.0509e-10
-2.09437e-06
-6.87882e-10
-2.09239e-06
-1.97614e-09
-2.08919e-06
-3.20013e-09
-2.08481e-06
-4.38187e-09
-2.07927e-06
-5.53998e-09
-2.07259e-06
-6.68412e-09
-2.06477e-06
-7.81792e-09
-2.05583e-06
-8.94264e-09
-2.04577e-06
-1.00583e-08
-2.0346e-06
-1.11647e-08
-2.02234e-06
-1.22612e-08
-2.00899e-06
-1.33473e-08
-1.99457e-06
-1.44223e-08
-1.97909e-06
-1.54856e-08
-1.96255e-06
-1.65366e-08
-1.94498e-06
-1.75748e-08
-1.92638e-06
-1.85998e-08
-1.90676e-06
-1.96109e-08
-1.88616e-06
-2.06078e-08
-1.86457e-06
-2.159e-08
-1.84201e-06
-2.2557e-08
-1.8185e-06
-2.35086e-08
-1.79406e-06
-2.44441e-08
-1.76869e-06
-2.53633e-08
-1.74243e-06
-2.62657e-08
-1.71528e-06
-2.71509e-08
-1.68726e-06
-2.80186e-08
-1.65839e-06
-2.88683e-08
-1.62869e-06
-2.96996e-08
-1.59818e-06
-3.05122e-08
-1.56687e-06
-3.13056e-08
-1.53479e-06
-3.20794e-08
-1.50196e-06
-3.28331e-08
-1.46839e-06
-3.35663e-08
-1.43412e-06
-3.42785e-08
-1.39915e-06
-3.49691e-08
-1.36351e-06
-3.56378e-08
-1.32722e-06
-3.6284e-08
-1.29032e-06
-3.69072e-08
-1.25281e-06
-3.75069e-08
-1.21473e-06
-3.80826e-08
-1.17609e-06
-3.86337e-08
-1.13693e-06
-3.91597e-08
-1.09727e-06
-3.96602e-08
-1.05714e-06
-4.01345e-08
-1.01656e-06
-4.05824e-08
-9.75554e-07
-4.10031e-08
-9.34158e-07
-4.13964e-08
-8.92396e-07
-4.17617e-08
-8.50297e-07
-4.20988e-08
-8.0789e-07
-4.24072e-08
-7.65203e-07
-4.26866e-08
-7.22267e-07
-4.29367e-08
-6.7911e-07
-4.31572e-08
-6.35762e-07
-4.33479e-08
-5.92253e-07
-4.35086e-08
-5.48614e-07
-4.36392e-08
-5.04874e-07
-4.37395e-08
-4.61065e-07
-4.38093e-08
-4.17217e-07
-4.38485e-08
-3.7336e-07
-4.38569e-08
-3.29525e-07
-4.38343e-08
-2.85745e-07
-4.378e-08
-2.42052e-07
-4.36935e-08
-1.98478e-07
-4.35742e-08
-1.55058e-07
-4.34194e-08
-1.11828e-07
-4.32302e-08
-6.88202e-08
-4.30079e-08
-2.60731e-08
-4.27471e-08
1.63761e-08
-4.24492e-08
5.84862e-08
-4.21102e-08
1.00227e-07
-4.17409e-08
1.41583e-07
-4.13561e-08
1.8255e-07
-4.09668e-08
2.23121e-07
-4.05714e-08
2.63289e-07
-4.01672e-08
3.03041e-07
-3.97527e-08
3.42369e-07
-3.93272e-08
3.81259e-07
-3.88904e-08
4.19702e-07
-3.84428e-08
4.57687e-07
-3.79852e-08
4.95205e-07
-3.75186e-08
5.32249e-07
-3.70439e-08
5.68812e-07
-3.65625e-08
6.04887e-07
-3.60754e-08
6.40471e-07
-3.55839e-08
6.7556e-07
-3.50889e-08
7.10151e-07
-3.45913e-08
7.44243e-07
-3.40917e-08
7.77833e-07
-3.359e-08
8.10919e-07
-3.30858e-08
8.43496e-07
-3.25775e-08
8.75559e-07
-3.20621e-08
9.07093e-07
-3.15347e-08
9.3808e-07
-3.09872e-08
9.68487e-07
-3.04068e-08
9.98261e-07
-2.97733e-08
1.02732e-06
-2.90545e-08
1.05551e-06
-2.81966e-08
1.08262e-06
-2.71082e-08
1.10823e-06
-2.56119e-08
1.1316e-06
-2.33654e-08
1.15101e-06
-1.94111e-08
1.1626e-06
-1.15897e-08
1.15375e-06
8.85239e-09
5.41224e-08
1.09962e-06
1.76668e-08
-3.62238e-08
2.79619e-08
-3.3662e-08
3.05776e-08
-2.29122e-08
2.75463e-08
-1.17183e-08
2.01963e-08
-9.71637e-10
9.27617e-09
9.04618e-09
-4.90115e-09
1.81668e-08
-2.23728e-08
2.62968e-08
-4.32602e-08
3.34518e-08
-6.76339e-08
3.98025e-08
-9.54901e-08
4.56181e-08
-1.26781e-07
5.11725e-08
-1.61424e-07
5.66729e-08
-1.99301e-07
6.22352e-08
-2.40262e-07
6.78857e-08
-2.84125e-07
7.35777e-08
-3.30658e-07
7.92148e-08
-3.79571e-07
8.46742e-08
-4.30525e-07
8.98245e-08
-4.83142e-07
9.45406e-08
-5.37018e-07
9.87134e-08
-5.91742e-07
1.02258e-07
-6.46915e-07
1.05117e-07
-7.0216e-07
1.07263e-07
-7.5714e-07
1.08698e-07
-8.11561e-07
1.09448e-07
-8.6518e-07
1.09562e-07
-9.17804e-07
1.09104e-07
-9.69288e-07
1.08148e-07
-1.01953e-06
1.06775e-07
-1.06844e-06
1.05066e-07
-1.11598e-06
1.03094e-07
-1.16211e-06
1.00918e-07
-1.20682e-06
9.85877e-08
-1.25012e-06
9.61478e-08
-1.29204e-06
9.36339e-08
-1.33259e-06
9.10751e-08
-1.3718e-06
8.84945e-08
-1.40972e-06
8.59093e-08
-1.44636e-06
8.33319e-08
-1.48176e-06
8.07704e-08
-1.51594e-06
7.82298e-08
-1.54892e-06
7.57122e-08
-1.58074e-06
7.32178e-08
-1.61139e-06
7.07452e-08
-1.6409e-06
6.82922e-08
-1.66928e-06
6.58558e-08
-1.69653e-06
6.34325e-08
-1.72267e-06
6.1019e-08
-1.74769e-06
5.86119e-08
-1.77159e-06
5.6208e-08
-1.79438e-06
5.38044e-08
-1.81606e-06
5.13986e-08
-1.83661e-06
4.89885e-08
-1.85605e-06
4.65722e-08
-1.87437e-06
4.41485e-08
-1.89156e-06
4.17163e-08
-1.90762e-06
3.92749e-08
-1.92254e-06
3.68241e-08
-1.93632e-06
3.43635e-08
-1.94896e-06
3.18934e-08
-1.96046e-06
2.94139e-08
-1.9708e-06
2.69253e-08
-1.98e-06
2.44279e-08
-1.98804e-06
2.19221e-08
-1.99494e-06
1.94081e-08
-2.00068e-06
1.68864e-08
-2.00529e-06
1.43573e-08
-2.00876e-06
1.18217e-08
-2.01113e-06
9.28195e-09
-2.01241e-06
6.74194e-09
-2.01267e-06
4.20998e-09
-2.01196e-06
1.70471e-09
-2.01041e-06
-7.51993e-10
-2.00794e-06
-3.15242e-09
-2.00444e-06
-5.48282e-09
-1.99985e-06
-7.7906e-09
-1.99415e-06
-1.00799e-08
-1.98734e-06
-1.23523e-08
-1.97941e-06
-1.46093e-08
-1.97038e-06
-1.68511e-08
-1.96024e-06
-1.90774e-08
-1.94901e-06
-2.1287e-08
-1.9367e-06
-2.34789e-08
-1.92331e-06
-2.56517e-08
-1.90885e-06
-2.78041e-08
-1.89334e-06
-2.99349e-08
-1.87678e-06
-3.20428e-08
-1.85919e-06
-3.41267e-08
-1.84058e-06
-3.61854e-08
-1.82096e-06
-3.82179e-08
-1.80035e-06
-4.02232e-08
-1.77876e-06
-4.22004e-08
-1.7562e-06
-4.41485e-08
-1.73269e-06
-4.60667e-08
-1.70824e-06
-4.79541e-08
-1.68288e-06
-4.98099e-08
-1.65661e-06
-5.16332e-08
-1.62945e-06
-5.34233e-08
-1.60142e-06
-5.51792e-08
-1.57254e-06
-5.69003e-08
-1.54282e-06
-5.85855e-08
-1.51229e-06
-6.02343e-08
-1.48096e-06
-6.18456e-08
-1.44884e-06
-6.34188e-08
-1.41597e-06
-6.49529e-08
-1.38236e-06
-6.6447e-08
-1.34802e-06
-6.79001e-08
-1.31299e-06
-6.93113e-08
-1.27728e-06
-7.06796e-08
-1.24091e-06
-7.2004e-08
-1.20391e-06
-7.32835e-08
-1.1663e-06
-7.45172e-08
-1.12811e-06
-7.57039e-08
-1.08935e-06
-7.68427e-08
-1.05005e-06
-7.79323e-08
-1.01024e-06
-7.89719e-08
-9.69935e-07
-7.99604e-08
-9.29172e-07
-8.08969e-08
-8.87975e-07
-8.17803e-08
-8.46368e-07
-8.26097e-08
-8.0438e-07
-8.33842e-08
-7.62039e-07
-8.41029e-08
-7.19373e-07
-8.47651e-08
-6.7641e-07
-8.53702e-08
-6.33179e-07
-8.59172e-08
-5.8971e-07
-8.64057e-08
-5.46032e-07
-8.68353e-08
-5.02174e-07
-8.72054e-08
-4.58167e-07
-8.75156e-08
-4.14041e-07
-8.77656e-08
-3.69825e-07
-8.79553e-08
-3.2555e-07
-8.80842e-08
-2.81247e-07
-8.81522e-08
-2.36944e-07
-8.8159e-08
-1.92675e-07
-8.8104e-08
-1.48468e-07
-8.79868e-08
-1.04356e-07
-8.78058e-08
-6.0369e-08
-8.75609e-08
-1.6539e-08
-8.72494e-08
2.71013e-08
-8.68705e-08
7.0519e-08
-8.64256e-08
1.13686e-07
-8.59141e-08
1.56578e-07
-8.53413e-08
1.99176e-07
-8.47079e-08
2.41457e-07
-8.40226e-08
2.83403e-07
-8.33021e-08
3.24993e-07
-8.25567e-08
3.6621e-07
-8.17885e-08
4.0704e-07
-8.09969e-08
4.47469e-07
-8.01812e-08
4.87483e-07
-7.93414e-08
5.27071e-07
-7.84782e-08
5.66221e-07
-7.75929e-08
6.04923e-07
-7.66873e-08
6.43168e-07
-7.57635e-08
6.80948e-07
-7.48237e-08
7.18256e-07
-7.38705e-08
7.55086e-07
-7.29062e-08
7.91435e-07
-7.1933e-08
8.273e-07
-7.09532e-08
8.62677e-07
-6.99683e-08
8.97565e-07
-6.89796e-08
9.31962e-07
-6.7987e-08
9.65865e-07
-6.69895e-08
9.99272e-07
-6.5984e-08
1.03217e-06
-6.49646e-08
1.06456e-06
-6.39214e-08
1.09641e-06
-6.28382e-08
1.12769e-06
-6.16897e-08
1.15836e-06
-6.0436e-08
1.18832e-06
-5.90136e-08
1.21744e-06
-5.7318e-08
1.2455e-06
-5.51729e-08
1.27214e-06
-5.22512e-08
1.29672e-06
-4.79436e-08
1.31812e-06
-4.08112e-08
1.33476e-06
-2.8229e-08
1.34504e-06
-1.43276e-09
5.35683e-08
1.3456e-06
4.3311e-09
-4.05549e-08
-1.04518e-09
-2.82857e-08
-1.12893e-08
-1.26681e-08
-2.4819e-08
1.81145e-09
-4.10086e-08
1.5218e-08
-5.96849e-08
2.77224e-08
-8.0868e-08
3.93499e-08
-1.04694e-07
5.01232e-08
-1.31343e-07
6.01005e-08
-1.60945e-07
6.94044e-08
-1.93527e-07
7.82002e-08
-2.29001e-07
8.66465e-08
-2.6718e-07
9.48517e-08
-3.07797e-07
1.02853e-07
-3.5053e-07
1.10618e-07
-3.95016e-07
1.18064e-07
-4.40874e-07
1.25073e-07
-4.87718e-07
1.31518e-07
-5.35173e-07
1.37279e-07
-5.82887e-07
1.42255e-07
-6.30547e-07
1.46373e-07
-6.77883e-07
1.49594e-07
-7.24676e-07
1.51909e-07
-7.70756e-07
1.53343e-07
-8.16002e-07
1.53943e-07
-8.60332e-07
1.53779e-07
-9.03702e-07
1.52932e-07
-9.4609e-07
1.51493e-07
-9.87496e-07
1.49554e-07
-1.02793e-06
1.47204e-07
-1.06739e-06
1.44529e-07
-1.1059e-06
1.41602e-07
-1.14346e-06
1.38485e-07
-1.18011e-06
1.35231e-07
-1.21584e-06
1.31883e-07
-1.25068e-06
1.28475e-07
-1.28464e-06
1.25035e-07
-1.31773e-06
1.21582e-07
-1.34995e-06
1.18132e-07
-1.38131e-06
1.14693e-07
-1.41182e-06
1.11272e-07
-1.44146e-06
1.07871e-07
-1.47023e-06
1.04489e-07
-1.49814e-06
1.01127e-07
-1.52518e-06
9.77797e-08
-1.55133e-06
9.44445e-08
-1.57659e-06
9.11172e-08
-1.60095e-06
8.77934e-08
-1.6244e-06
8.4469e-08
-1.64693e-06
8.11399e-08
-1.66853e-06
7.78026e-08
-1.68917e-06
7.44539e-08
-1.70887e-06
7.1091e-08
-1.72759e-06
6.77119e-08
-1.74533e-06
6.4315e-08
-1.76208e-06
6.0899e-08
-1.77783e-06
5.74633e-08
-1.79256e-06
5.40079e-08
-1.80627e-06
5.05329e-08
-1.81895e-06
4.7039e-08
-1.83058e-06
4.35271e-08
-1.84117e-06
3.99986e-08
-1.8507e-06
3.64549e-08
-1.85917e-06
3.28978e-08
-1.86657e-06
2.93294e-08
-1.87292e-06
2.57519e-08
-1.8782e-06
2.21679e-08
-1.88242e-06
1.8581e-08
-1.8856e-06
1.4995e-08
-1.88773e-06
1.14154e-08
-1.88884e-06
7.84899e-09
-1.88893e-06
4.30484e-09
-1.88802e-06
7.92866e-10
-1.88609e-06
-2.67676e-09
-1.88314e-06
-6.10969e-09
-1.87911e-06
-9.51264e-09
-1.874e-06
-1.28963e-08
-1.86782e-06
-1.62633e-08
-1.86056e-06
-1.96135e-08
-1.85222e-06
-2.29459e-08
-1.84281e-06
-2.62588e-08
-1.83234e-06
-2.95505e-08
-1.82081e-06
-3.28187e-08
-1.80823e-06
-3.60616e-08
-1.7946e-06
-3.92769e-08
-1.77994e-06
-4.24628e-08
-1.76426e-06
-4.56171e-08
-1.74756e-06
-4.8738e-08
-1.72987e-06
-5.18237e-08
-1.71118e-06
-5.48725e-08
-1.69152e-06
-5.78829e-08
-1.67089e-06
-6.08533e-08
-1.6493e-06
-6.37823e-08
-1.62678e-06
-6.66685e-08
-1.60334e-06
-6.95106e-08
-1.57899e-06
-7.23073e-08
-1.55374e-06
-7.50573e-08
-1.52761e-06
-7.77594e-08
-1.50062e-06
-8.04122e-08
-1.47279e-06
-8.30146e-08
-1.44412e-06
-8.55652e-08
-1.41465e-06
-8.80628e-08
-1.38437e-06
-9.05062e-08
-1.35333e-06
-9.28942e-08
-1.32152e-06
-9.52255e-08
-1.28897e-06
-9.74987e-08
-1.25571e-06
-9.97125e-08
-1.22174e-06
-1.01865e-07
-1.1871e-06
-1.03956e-07
-1.15179e-06
-1.05983e-07
-1.11585e-06
-1.07944e-07
-1.0793e-06
-1.09839e-07
-1.04215e-06
-1.11665e-07
-1.00443e-06
-1.13422e-07
-9.66168e-07
-1.15107e-07
-9.27381e-07
-1.16719e-07
-8.88096e-07
-1.18257e-07
-8.48338e-07
-1.19718e-07
-8.08132e-07
-1.21102e-07
-7.67505e-07
-1.22408e-07
-7.26483e-07
-1.23632e-07
-6.85092e-07
-1.24775e-07
-6.4336e-07
-1.25835e-07
-6.01314e-07
-1.26811e-07
-5.58983e-07
-1.27701e-07
-5.16395e-07
-1.28505e-07
-4.73578e-07
-1.29222e-07
-4.30562e-07
-1.29852e-07
-3.87375e-07
-1.30393e-07
-3.44046e-07
-1.30844e-07
-3.00606e-07
-1.31206e-07
-2.57082e-07
-1.31479e-07
-2.13506e-07
-1.31661e-07
-1.69906e-07
-1.31752e-07
-1.26312e-07
-1.31753e-07
-8.27543e-08
-1.31662e-07
-3.92618e-08
-1.31479e-07
4.13625e-09
-1.31204e-07
4.74091e-08
-1.30834e-07
9.05274e-08
-1.30368e-07
1.33463e-07
-1.29806e-07
1.76187e-07
-1.2915e-07
2.18678e-07
-1.28405e-07
2.60918e-07
-1.27582e-07
3.02895e-07
-1.26685e-07
3.44587e-07
-1.25715e-07
3.8597e-07
-1.24685e-07
4.27017e-07
-1.23604e-07
4.67709e-07
-1.2248e-07
5.08026e-07
-1.21314e-07
5.47953e-07
-1.20108e-07
5.87476e-07
-1.18864e-07
6.26581e-07
-1.17584e-07
6.65258e-07
-1.1627e-07
7.03496e-07
-1.14925e-07
7.41285e-07
-1.13553e-07
7.78618e-07
-1.12157e-07
8.15489e-07
-1.10741e-07
8.51892e-07
-1.09309e-07
8.87823e-07
-1.07864e-07
9.23279e-07
-1.06409e-07
9.58259e-07
-1.04947e-07
9.92759e-07
-1.0348e-07
1.02678e-06
-1.02007e-07
1.06032e-06
-1.00528e-07
1.09337e-06
-9.90365e-08
1.12593e-06
-9.75252e-08
1.15799e-06
-9.59789e-08
1.18952e-06
-9.4374e-08
1.22051e-06
-9.26733e-08
1.25089e-06
-9.08186e-08
1.28059e-06
-8.87179e-08
1.3095e-06
-8.62226e-08
1.33741e-06
-8.30854e-08
1.36403e-06
-7.88679e-08
1.38887e-06
-7.27835e-08
1.41126e-06
-6.31989e-08
1.43032e-06
-4.7293e-08
1.44658e-06
-1.76956e-08
3.65056e-08
1.46365e-06
-1.03234e-08
-3.02315e-08
-2.70122e-08
-1.1597e-08
-4.59515e-08
6.27129e-09
-6.65029e-08
2.23628e-08
-8.86465e-08
3.73616e-08
-1.1245e-07
5.15256e-08
-1.38046e-07
6.49463e-08
-1.65582e-07
7.7659e-08
-1.95179e-07
8.96979e-08
-2.26892e-07
1.01117e-07
-2.60675e-07
1.11983e-07
-2.96378e-07
1.22349e-07
-3.33763e-07
1.32237e-07
-3.72534e-07
1.41624e-07
-4.1236e-07
1.50444e-07
-4.52902e-07
1.58605e-07
-4.93835e-07
1.66006e-07
-5.34864e-07
1.72547e-07
-5.75734e-07
1.7815e-07
-6.16241e-07
1.82762e-07
-6.56227e-07
1.8636e-07
-6.95585e-07
1.88952e-07
-7.34249e-07
1.90573e-07
-7.7219e-07
1.91284e-07
-8.09405e-07
1.91158e-07
-8.45911e-07
1.90284e-07
-8.81733e-07
1.88755e-07
-9.16904e-07
1.86664e-07
-9.51452e-07
1.84102e-07
-9.85402e-07
1.81154e-07
-1.01877e-06
1.77898e-07
-1.05157e-06
1.74401e-07
-1.08381e-06
1.7072e-07
-1.11548e-06
1.66902e-07
-1.14658e-06
1.62987e-07
-1.17711e-06
1.59006e-07
-1.20706e-06
1.54982e-07
-1.23641e-06
1.50933e-07
-1.26515e-06
1.46871e-07
-1.29326e-06
1.42804e-07
-1.32073e-06
1.38738e-07
-1.34753e-06
1.34674e-07
-1.37365e-06
1.3061e-07
-1.39907e-06
1.26547e-07
-1.42377e-06
1.2248e-07
-1.44773e-06
1.18405e-07
-1.47093e-06
1.1432e-07
-1.49336e-06
1.10218e-07
-1.51499e-06
1.06098e-07
-1.5358e-06
1.01954e-07
-1.55578e-06
9.7784e-08
-1.57491e-06
9.35847e-08
-1.59318e-06
8.93541e-08
-1.61055e-06
8.50905e-08
-1.62703e-06
8.07929e-08
-1.64259e-06
7.64609e-08
-1.65723e-06
7.20946e-08
-1.67091e-06
6.76947e-08
-1.68364e-06
6.32625e-08
-1.6954e-06
5.87997e-08
-1.70618e-06
5.43083e-08
-1.71598e-06
4.97908e-08
-1.72477e-06
4.52502e-08
-1.73256e-06
4.06896e-08
-1.73935e-06
3.61126e-08
-1.74512e-06
3.15231e-08
-1.74987e-06
2.69255e-08
-1.75362e-06
2.23246e-08
-1.75635e-06
1.77258e-08
-1.75807e-06
1.31351e-08
-1.75878e-06
8.55889e-09
-1.75848e-06
4.00373e-09
-1.75716e-06
-5.24852e-10
-1.75481e-06
-5.02334e-09
-1.75143e-06
-9.49392e-09
-1.747e-06
-1.39418e-08
-1.74153e-06
-1.83709e-08
-1.73501e-06
-2.2782e-08
-1.72745e-06
-2.71739e-08
-1.71885e-06
-3.15444e-08
-1.70922e-06
-3.5891e-08
-1.69856e-06
-4.02109e-08
-1.68687e-06
-4.4501e-08
-1.67418e-06
-4.87586e-08
-1.66047e-06
-5.29809e-08
-1.64577e-06
-5.71649e-08
-1.63008e-06
-6.13082e-08
-1.61341e-06
-6.54082e-08
-1.59577e-06
-6.94624e-08
-1.57717e-06
-7.34687e-08
-1.55763e-06
-7.74249e-08
-1.53716e-06
-8.13289e-08
-1.51576e-06
-8.51789e-08
-1.49346e-06
-8.89729e-08
-1.47026e-06
-9.27093e-08
-1.44618e-06
-9.63862e-08
-1.42123e-06
-1.00002e-07
-1.39544e-06
-1.03555e-07
-1.36881e-06
-1.07043e-07
-1.34136e-06
-1.10465e-07
-1.3131e-06
-1.1382e-07
-1.28406e-06
-1.17104e-07