/*--------------------------------*- C++ -*----------------------------------*\
| =========                 |                                                 |
| \\      /  F ield         | OpenFOAM: The Open Source CFD Toolbox           |
|  \\    /   O peration     | Version:  2412                                  |
|   \\  /    A nd           | Website:  www.openfoam.com                      |
|    \\/     M anipulation  |                                                 |
\*---------------------------------------------------------------------------*/
FoamFile
{
    version     2.0;
    format      ascii;
    arch        "LSB;label=32;scalar=64";
    class       volVectorField;
    location    "0.24";
    object      U;
}
// * * * * * * * * * * * * * * * * * * * * * * * * * * * * * * * * * * * * * //

dimensions      [0 1 -1 0 0 0 0];

internalField   nonuniform List<vector> 
12225
(
(0.377183 -0.200896 0)
(0.543962 -0.0519273 0)
(0.71105 -0.0340154 0)
(0.893987 -0.030478 0)
(1.05913 -0.0297487 0)
(1.20888 -0.0284546 0)
(1.3462 -0.0265207 0)
(1.47051 -0.0245783 0)
(1.58227 -0.0227695 0)
(1.68275 -0.0210774 0)
(1.77312 -0.0194995 0)
(1.85435 -0.0180276 0)
(1.92723 -0.0166402 0)
(1.99248 -0.0152954 0)
(2.05042 -0.0139691 0)
(2.10193 -0.0125093 0)
(2.14314 -0.0103432 0)
(2.19073 -0.0128309 0)
(0.933503 -0.0317784 0)
(1.0567 -0.0587109 0)
(1.23665 -0.0689018 0)
(1.42156 -0.064487 0)
(1.58554 -0.0618157 0)
(1.73444 -0.0589702 0)
(1.87135 -0.0555689 0)
(1.99607 -0.0521824 0)
(2.10909 -0.0489411 0)
(2.21144 -0.0458523 0)
(2.3041 -0.0429307 0)
(2.38791 -0.0401618 0)
(2.46361 -0.0375036 0)
(2.53182 -0.0348768 0)
(2.59293 -0.0322204 0)
(2.64732 -0.0290847 0)
(2.69448 -0.0260681 0)
(2.73637 -0.0158919 0)
(1.39962 -0.084682 0)
(1.49179 -0.105679 0)
(1.65466 -0.107239 0)
(1.82261 -0.101944 0)
(1.97269 -0.0979933 0)
(2.1104 -0.093657 0)
(2.23778 -0.0887462 0)
(2.35453 -0.0838041 0)
(2.46099 -0.0790035 0)
(2.55793 -0.0743907 0)
(2.64611 -0.0699913 0)
(2.7262 -0.0657863 0)
(2.79882 -0.0617162 0)
(2.8645 -0.0576739 0)
(2.92364 -0.0535275 0)
(2.97645 -0.048855 0)
(3.02314 -0.0436296 0)
(3.06299 -0.0341001 0)
(1.89741 -0.115425 0)
(1.94623 -0.14331 0)
(2.07521 -0.144986 0)
(2.21748 -0.14077 0)
(2.34799 -0.135784 0)
(2.46975 -0.130051 0)
(2.58355 -0.123703 0)
(2.68871 -0.117217 0)
(2.78529 -0.110832 0)
(2.87378 -0.104648 0)
(2.95468 -0.09871 0)
(3.02848 -0.0929982 0)
(3.09567 -0.0874418 0)
(3.15665 -0.081911 0)
(3.21177 -0.076224 0)
(3.26121 -0.0699571 0)
(3.30551 -0.062818 0)
(3.34312 -0.0518037 0)
(2.43108 -0.125831 0)
(2.44051 -0.169894 0)
(2.52881 -0.177416 0)
(2.64003 -0.176178 0)
(2.74682 -0.171238 0)
(2.84905 -0.164739 0)
(2.9462 -0.157388 0)
(3.03705 -0.14969 0)
(3.1213 -0.141978 0)
(3.1991 -0.134423 0)
(3.27068 -0.127099 0)
(3.33633 -0.12 0)
(3.39637 -0.113055 0)
(3.4511 -0.106122 0)
(3.5008 -0.0989908 0)
(3.5456 -0.0912536 0)
(3.58633 -0.0824752 0)
(3.62093 -0.0703838 0)
(2.99683 -0.123685 0)
(2.97698 -0.185373 0)
(3.02469 -0.201466 0)
(3.10204 -0.20496 0)
(3.18212 -0.201584 0)
(3.26199 -0.195268 0)
(3.33998 -0.187567 0)
(3.41427 -0.179178 0)
(3.48412 -0.17056 0)
(3.54932 -0.161978 0)
(3.60983 -0.153556 0)
(3.66573 -0.145311 0)
(3.71716 -0.137186 0)
(3.7643 -0.129044 0)
(3.80735 -0.12067 0)
(3.84641 -0.111696 0)
(3.88247 -0.101667 0)
(3.913 -0.0890021 0)
(3.58832 -0.11451 0)
(3.5509 -0.190589 0)
(3.56321 -0.2159 0)
(3.60679 -0.225327 0)
(3.65876 -0.225019 0)
(3.71445 -0.219973 0)
(3.77143 -0.212701 0)
(3.82739 -0.204246 0)
(3.88114 -0.195237 0)
(3.93215 -0.186059 0)
(3.9801 -0.1769 0)
(4.02486 -0.167825 0)
(4.0664 -0.158799 0)
(4.10475 -0.149709 0)
(4.14006 -0.140357 0)
(4.17234 -0.130437 0)
(4.20268 -0.119554 0)
(4.22804 -0.106677 0)
(4.1988 -0.101769 0)
(4.15397 -0.187082 0)
(4.13919 -0.220716 0)
(4.15219 -0.236322 0)
(4.1767 -0.240155 0)
(4.20779 -0.23741 0)
(4.24284 -0.231382 0)
(4.27937 -0.22354 0)
(4.31587 -0.214718 0)
(4.35151 -0.205432 0)
(4.38574 -0.195964 0)
(4.41825 -0.186431 0)
(4.44883 -0.176842 0)
(4.47739 -0.167119 0)
(4.50399 -0.157106 0)
(4.52857 -0.146567 0)
(4.55224 -0.13521 0)
(4.5714 -0.122403 0)
(4.82185 -0.087812 0)
(4.77662 -0.176883 0)
(4.7439 -0.216855 0)
(4.73191 -0.237843 0)
(4.73179 -0.246143 0)
(4.73957 -0.246427 0)
(4.75306 -0.242354 0)
(4.77002 -0.235777 0)
(4.78883 -0.227726 0)
(4.80851 -0.218854 0)
(4.82835 -0.209537 0)
(4.84787 -0.199963 0)
(4.86675 -0.190196 0)
(4.88478 -0.180202 0)
(4.90193 -0.169881 0)
(4.91806 -0.159078 0)
(4.93424 -0.147608 0)
(4.94634 -0.13513 0)
(5.45146 -0.0741128 0)
(5.4095 -0.162019 0)
(5.36682 -0.205841 0)
(5.33654 -0.230662 0)
(5.31636 -0.24292 0)
(5.30385 -0.246441 0)
(5.29762 -0.244756 0)
(5.29603 -0.239941 0)
(5.29769 -0.23317 0)
(5.3016 -0.225197 0)
(5.307 -0.216487 0)
(5.31334 -0.207298 0)
(5.32021 -0.197753 0)
(5.32734 -0.187874 0)
(5.33459 -0.17762 0)
(5.34178 -0.166913 0)
(5.3499 -0.15568 0)
(5.35433 -0.143768 0)
(6.08167 -0.0613986 0)
(6.04411 -0.144182 0)
(5.99714 -0.189334 0)
(5.95494 -0.21618 0)
(5.92006 -0.231269 0)
(5.89157 -0.237648 0)
(5.86884 -0.23837 0)
(5.85102 -0.235526 0)
(5.83714 -0.230351 0)
(5.82639 -0.223639 0)
(5.8181 -0.215913 0)
(5.81173 -0.207489 0)
(5.80686 -0.19854 0)
(5.80319 -0.189145 0)
(5.80054 -0.179322 0)
(5.79864 -0.169059 0)
(5.79847 -0.158378 0)
(5.79493 -0.147258 0)
(6.65461 -0.0506072 0)
(6.62055 -0.126208 0)
(6.57305 -0.170589 0)
(6.52478 -0.197776 0)
(6.48114 -0.214238 0)
(6.44232 -0.222498 0)
(6.40817 -0.225054 0)
(6.37844 -0.223877 0)
(6.35266 -0.220186 0)
(6.33031 -0.214761 0)
(6.31088 -0.208132 0)
(6.29395 -0.200641 0)
(6.27914 -0.192499 0)
(6.26617 -0.183822 0)
(6.25486 -0.174671 0)
(6.24492 -0.165088 0)
(6.2373 -0.155132 0)
(6.22654 -0.144977 0)
(7.20973 -0.0406601 0)
(7.18016 -0.107396 0)
(7.13447 -0.149612 0)
(7.08343 -0.176145 0)
(7.03446 -0.192985 0)
(6.98882 -0.202365 0)
(6.94662 -0.206247 0)
(6.908 -0.206402 0)
(6.87294 -0.204005 0)
(6.8412 -0.199796 0)
(6.81251 -0.194281 0)
(6.78657 -0.187805 0)
(6.76312 -0.180592 0)
(6.74192 -0.172785 0)
(6.72284 -0.164476 0)
(6.70558 -0.155745 0)
(6.69104 -0.146661 0)
(6.67362 -0.137609 0)
(7.81811 -0.0310715 0)
(7.79338 -0.0861316 0)
(7.75173 -0.12385 0)
(7.70083 -0.14831 0)
(7.64927 -0.16435 0)
(7.59955 -0.173984 0)
(7.552 -0.178639 0)
(7.507 -0.17976 0)
(7.46483 -0.178429 0)
(7.42558 -0.175337 0)
(7.38917 -0.170943 0)
(7.35548 -0.165568 0)
(7.32436 -0.159437 0)
(7.29569 -0.152702 0)
(7.26937 -0.145471 0)
(7.24516 -0.137843 0)
(7.22389 -0.129909 0)
(7.20008 -0.122139 0)
(8.45855 -0.022298 0)
(8.43893 -0.0637716 0)
(8.40342 -0.0942592 0)
(8.3561 -0.114681 0)
(8.30536 -0.128328 0)
(8.25484 -0.13694 0)
(8.20528 -0.141486 0)
(8.15716 -0.142968 0)
(8.11103 -0.14226 0)
(8.06723 -0.139968 0)
(8.02584 -0.136488 0)
(7.98689 -0.132106 0)
(7.95035 -0.127026 0)
(7.91618 -0.121402 0)
(7.88437 -0.115345 0)
(7.8547 -0.108958 0)
(7.82799 -0.102336 0)
(7.79912 -0.0959686 0)
(9.08866 -0.0143739 0)
(9.07383 -0.0417443 0)
(9.04561 -0.0628578 0)
(9.00497 -0.0772076 0)
(8.95897 -0.0866397 0)
(8.91169 -0.0925245 0)
(8.86421 -0.0955536 0)
(8.81708 -0.0963381 0)
(8.77099 -0.0954722 0)
(8.72647 -0.0934027 0)
(8.68381 -0.0904269 0)
(8.64315 -0.0867548 0)
(8.60456 -0.0825471 0)
(8.56807 -0.0779285 0)
(8.53373 -0.0730003 0)
(8.50137 -0.0678581 0)
(8.47175 -0.0625709 0)
(8.44051 -0.0576465 0)
(9.63295 -0.00707632 0)
(9.6217 -0.0207166 0)
(9.59988 -0.0314131 0)
(9.5666 -0.0384024 0)
(9.52747 -0.0424461 0)
(9.48645 -0.0443756 0)
(9.44473 -0.0446415 0)
(9.40277 -0.0435827 0)
(9.36114 -0.0415422 0)
(9.32042 -0.0388032 0)
(9.28098 -0.0355615 0)
(9.24301 -0.0319542 0)
(9.20665 -0.0280892 0)
(9.17196 -0.0240573 0)
(9.13904 -0.0199318 0)
(9.10778 -0.0157931 0)
(9.07876 -0.0116552 0)
(9.04897 -0.0080119 0)
(9.96404 0.000104454 0)
(9.95459 0.000154134 0)
(9.93649 0.000608293 0)
(9.90812 0.00184925 0)
(9.87423 0.00378903 0)
(9.83859 0.00623622 0)
(9.80247 0.00908641 0)
(9.76622 0.012268 0)
(9.7303 0.0156967 0)
(9.6952 0.0192919 0)
(9.66123 0.0229911 0)
(9.62855 0.0267444 0)
(9.59722 0.0305061 0)
(9.56729 0.0342281 0)
(9.53877 0.0378682 0)
(9.51163 0.0413625 0)
(9.48602 0.0447358 0)
(9.46095 0.0475727 0)
(9.87499 0.00747109 0)
(9.86688 0.0217909 0)
(9.84987 0.0342003 0)
(9.82249 0.0443962 0)
(9.78959 0.0528028 0)
(9.75498 0.0599026 0)
(9.71993 0.0659926 0)
(9.68483 0.0712878 0)
(9.65014 0.0759852 0)
(9.61636 0.0802436 0)
(9.58381 0.084171 0)
(9.55263 0.0878354 0)
(9.52288 0.0912793 0)
(9.49457 0.0945257 0)
(9.46769 0.0975836 0)
(9.44225 0.100435 0)
(9.41797 0.103116 0)
(9.3959 0.105347 0)
(9.28437 0.0159165 0)
(9.27065 0.0461917 0)
(9.24578 0.0711732 0)
(9.2098 0.0903928 0)
(9.16896 0.10521 0)
(9.12725 0.116827 0)
(9.08575 0.125926 0)
(9.04487 0.133048 0)
(9.00514 0.138707 0)
(8.96707 0.143307 0)
(8.93092 0.147127 0)
(8.89675 0.150357 0)
(8.8646 0.153134 0)
(8.83441 0.155561 0)
(8.80611 0.157708 0)
(8.77968 0.159623 0)
(8.75463 0.161356 0)
(8.73295 0.162761 0)
(8.47101 0.0260888 0)
(8.45236 0.0738037 0)
(8.4197 0.11034 0)
(8.37625 0.136873 0)
(8.32995 0.15652 0)
(8.28452 0.171129 0)
(8.24067 0.181733 0)
(8.19873 0.18929 0)
(8.15917 0.194661 0)
(8.12227 0.19847 0)
(8.08809 0.201145 0)
(8.05655 0.202993 0)
(8.02753 0.204244 0)
(8.0009 0.205068 0)
(7.97649 0.205591 0)
(7.95418 0.205909 0)
(7.93346 0.206083 0)
(7.91636 0.20607 0)
(7.51239 0.0385224 0)
(7.4866 0.1045 0)
(7.44644 0.150223 0)
(7.39953 0.18135 0)
(7.35393 0.203327 0)
(7.31179 0.218452 0)
(7.27312 0.228253 0)
(7.23799 0.234268 0)
(7.20651 0.237711 0)
(7.17857 0.239382 0)
(7.15389 0.239823 0)
(7.13219 0.239424 0)
(7.11317 0.23847 0)
(7.09657 0.237165 0)
(7.08209 0.235651 0)
(7.06956 0.234035 0)
(7.05846 0.232374 0)
(7.05052 0.230691 0)
(6.48931 0.0542243 0)
(6.45655 0.1369 0)
(6.41294 0.186946 0)
(6.37062 0.218549 0)
(6.33486 0.239383 0)
(6.30523 0.252031 0)
(6.281 0.258732 0)
(6.26177 0.261567 0)
(6.24694 0.261925 0)
(6.23585 0.26066 0)
(6.22789 0.258352 0)
(6.22254 0.255414 0)
(6.21936 0.252131 0)
(6.21797 0.248694 0)
(6.21805 0.245231 0)
(6.21937 0.241833 0)
(6.22149 0.238544 0)
(6.2258 0.235421 0)
(5.45712 0.073389 0)
(5.41829 0.166488 0)
(5.37867 0.214113 0)
(5.35275 0.241937 0)
(5.33861 0.258325 0)
(5.33243 0.266081 0)
(5.33265 0.268254 0)
(5.33802 0.267176 0)
(5.34715 0.264161 0)
(5.35895 0.259994 0)
(5.37265 0.255205 0)
(5.38768 0.25015 0)
(5.40358 0.245053 0)
(5.42001 0.240053 0)
(5.43671 0.235236 0)
(5.45353 0.230655 0)
(5.47013 0.226332 0)
(5.48764 0.222329 0)
(4.45282 0.0947769 0)
(4.41205 0.187409 0)
(4.39047 0.225931 0)
(4.39658 0.246391 0)
(4.41646 0.255913 0)
(4.44331 0.257815 0)
(4.47522 0.255565 0)
(4.51029 0.251178 0)
(4.54683 0.245634 0)
(4.5838 0.239529 0)
(4.62056 0.233259 0)
(4.6567 0.227067 0)
(4.69194 0.221093 0)
(4.7261 0.215413 0)
(4.75909 0.210066 0)
(4.79086 0.205066 0)
(4.82126 0.200416 0)
(4.85123 0.196179 0)
(3.50293 0.114452 0)
(3.47301 0.192919 0)
(3.48912 0.217646 0)
(3.54118 0.228884 0)
(3.60258 0.231458 0)
(3.66646 0.228823 0)
(3.73174 0.223817 0)
(3.79669 0.217707 0)
(3.85992 0.211097 0)
(3.92078 0.204383 0)
(3.97901 0.197821 0)
(4.03449 0.191551 0)
(4.0872 0.185643 0)
(4.13718 0.180125 0)
(4.18454 0.175001 0)
(4.2294 0.170261 0)
(4.27177 0.165891 0)
(4.31249 0.161965 0)
(2.62982 0.122983 0)
(2.63207 0.176388 0)
(2.70177 0.187968 0)
(2.80469 0.191083 0)
(2.90732 0.189109 0)
(3.00602 0.184591 0)
(3.10158 0.178916 0)
(3.19301 0.172732 0)
(3.27948 0.166438 0)
(3.36086 0.160289 0)
(3.43729 0.154432 0)
(3.50898 0.148938 0)
(3.57619 0.143834 0)
(3.63919 0.139119 0)
(3.69829 0.134778 0)
(3.75377 0.130789 0)
(3.80581 0.12713 0)
(3.85518 0.123894 0)
(1.85178 0.104826 0)
(1.90638 0.134438 0)
(2.03033 0.141897 0)
(2.17812 0.140513 0)
(2.31585 0.137036 0)
(2.44341 0.13292 0)
(2.56364 0.128101 0)
(2.67646 0.122989 0)
(2.78152 0.117942 0)
(2.87912 0.113115 0)
(2.96978 0.10858 0)
(3.05404 0.104373 0)
(3.1324 0.1005 0)
(3.20533 0.0969466 0)
(3.27332 0.0936927 0)
(3.33679 0.0907148 0)
(3.39606 0.0879775 0)
(3.45187 0.085588 0)
(1.17533 0.04169 0)
(1.28238 0.0661055 0)
(1.43868 0.0889866 0)
(1.61658 0.0891767 0)
(1.78033 0.0862297 0)
(1.92914 0.0833308 0)
(2.0674 0.0798333 0)
(2.19581 0.076117 0)
(2.31429 0.0725272 0)
(2.4234 0.0691485 0)
(2.52402 0.066006 0)
(2.61695 0.0631154 0)
(2.70288 0.0604732 0)
(2.78247 0.0580633 0)
(2.85633 0.0558653 0)
(2.925 0.0538622 0)
(2.98891 0.0519922 0)
(3.04876 0.0503546 0)
(0.469485 0.226529 0)
(0.642364 0.069163 0)
(0.788937 0.0480256 0)
(0.972451 0.0444101 0)
(1.14912 0.0429718 0)
(1.30915 0.041679 0)
(1.45686 0.0396461 0)
(1.59323 0.0373308 0)
(1.71806 0.0351127 0)
(1.83211 0.0330647 0)
(1.93654 0.0311824 0)
(2.03239 0.029464 0)
(2.12053 0.0279027 0)
(2.20173 0.0264857 0)
(2.27672 0.0251971 0)
(2.34611 0.0240298 0)
(2.41043 0.0229307 0)
(2.46997 0.0219785 0)
(0.00851861 -0.0176326 -2.69148e-20)
(0.0271967 -0.0291988 2.62722e-20)
(0.0465167 -0.0301598 0)
(0.0626234 -0.0254406 0)
(0.0731839 -0.0179266 0)
(0.0780097 -0.00949426 -2.46589e-20)
(0.0769541 -0.00151225 0)
(0.0709775 0.00495618 0)
(0.0612842 0.00951217 0)
(0.0487271 0.0124196 0)
(0.0339074 0.014276 2.41161e-20)
(0.0171428 0.0156696 0)
(-0.00150413 0.017017 0)
(-0.0221361 0.0185906 0)
(-0.0449631 0.0205332 0)
(-0.0702116 0.0228706 2.28079e-20)
(-0.0980701 0.0255589 0)
(-0.128675 0.0285198 0)
(-0.162096 0.0316573 0)
(-0.198326 0.034864 0)
(-0.23728 0.0380268 0)
(-0.2788 0.0410346 0)
(-0.322662 0.0437861 0)
(-0.368586 0.0461971 1.94083e-20)
(-0.416255 0.0482049 -1.90218e-20)
(-0.465321 0.0497712 1.86516e-20)
(-0.515433 0.0508814 1.82991e-20)
(-0.566245 0.0515451 0)
(-0.617438 0.051795 0)
(-0.66871 0.0516858 -1.7351e-20)
(-0.719764 0.0512851 -1.70697e-20)
(-0.770422 0.0506583 0)
(-0.820535 0.049843 0)
(-0.869944 0.0488668 -1.63185e-20)
(-0.91853 0.0477623 0)
(-0.966199 0.0465596 0)
(-1.01287 0.0452857 1.56851e-20)
(-1.0585 0.0439636 0)
(-1.10304 0.0426126 1.53129e-20)
(-1.14647 0.0412478 3.02774e-20)
(-1.18876 0.0398808 0)
(-1.22992 0.0385204 0)
(-1.26993 0.0371727 0)
(-1.3088 0.0358415 0)
(-1.34653 0.0345293 0)
(-1.38312 0.033237 2.84099e-20)
(-1.41857 0.0319647 2.81225e-20)
(-1.4529 0.0307119 2.78388e-20)
(-1.4861 0.0294777 0)
(-1.51818 0.0282609 -2.72784e-20)
(-1.54913 0.0270601 0)
(-1.57896 0.025874 2.67218e-20)
(-1.60765 0.0247014 2.64431e-20)
(-1.63522 0.0235412 0)
(-1.66165 0.0223923 0)
(-1.68693 0.021254 0)
(-1.71108 0.0201254 2.53098e-20)
(-1.73406 0.0190058 0)
(-1.75589 0.0178948 0)
(-1.77655 0.0167917 0)
(-1.79604 0.0156957 0)
(-1.81434 0.0146061 0)
(-1.83145 0.0135217 0)
(-1.84737 0.012441 0)
(-1.86207 0.0113619 0)
(-1.87556 0.0102818 -2.25195e-20)
(-1.88783 0.00919733 0)
(-1.89885 0.00810451 0)
(-1.90861 0.00699839 2.14822e-20)
(-1.91709 0.0058739 2.11228e-20)
(-1.92426 0.00472772 0)
(-1.9301 0.00356363 -2.03833e-20)
(-1.93456 0.00240144 2.00033e-20)
(-1.93758 0.00128111 0)
(-1.9391 0.000252081 -1.92202e-20)
(-1.93934 -0.000642701 0)
(-1.9385 -0.00143198 0)
(-1.93654 -0.00217602 1.79775e-20)
(-1.93351 -0.00289402 0)
(-1.92942 -0.00359432 -1.71078e-20)
(-1.92428 -0.00428008 0)
(-1.91809 -0.0049526 1.62048e-20)
(-1.91085 -0.00561234 1.57411e-20)
(-1.90258 -0.0062594 1.52692e-20)
(-1.89328 -0.00689374 2.95785e-20)
(-1.88296 -0.00751529 -2.86028e-20)
(-1.87162 -0.00812393 0)
(-1.85928 -0.00871956 0)
(-1.84593 -0.00930212 0)
(-1.8316 -0.00987152 -2.45472e-20)
(-1.81628 -0.0104277 -2.34966e-20)
(-1.79999 -0.0109707 2.2432e-20)
(-1.78274 -0.0115004 0)
(-1.76454 -0.0120169 -2.02624e-20)
(-1.74541 -0.01252 -1.91583e-20)
(-1.72534 -0.0130099 -1.80419e-20)
(-1.70436 -0.0134865 0)
(-1.68248 -0.0139499 0)
(-1.6597 -0.0143999 0)
(-1.63605 -0.0148367 -1.34638e-20)
(-1.61153 -0.0152602 0)
(-1.58616 -0.0156704 0)
(-1.55996 -0.0160673 9.92739e-21)
(-1.53294 -0.016451 0)
(-1.5051 -0.0168213 0)
(-1.47648 -0.0171784 6.32085e-21)
(-1.44708 -0.017522 0)
(-1.41692 -0.0178522 0)
(-1.38602 -0.0181689 -2.66217e-21)
(-1.3544 -0.018472 -1.43433e-21)
(-1.32207 -0.0187615 0)
(-1.28904 -0.0190373 -1.02928e-21)
(-1.25535 -0.0192993 0)
(-1.22101 -0.0195475 3.49829e-21)
(-1.18604 -0.0197816 0)
(-1.15045 -0.0200018 5.96631e-21)
(-1.11428 -0.0202077 7.1979e-21)
(-1.07754 -0.0203994 0)
(-1.04025 -0.0205769 0)
(-1.00244 -0.0207399 0)
(-0.964132 -0.0208884 0)
(-0.925346 -0.0210223 0)
(-0.886107 -0.0211417 0)
(-0.846441 -0.0212465 0)
(-0.806372 -0.0213365 1.68807e-20)
(-0.765927 -0.0214119 -1.80569e-20)
(-0.72513 -0.0214726 0)
(-0.684009 -0.0215186 0)
(-0.64259 -0.0215499 0)
(-0.6009 -0.0215666 0)
(-0.558966 -0.0215688 -4.75297e-20)
(-0.516816 -0.0215564 0)
(-0.474477 -0.0215296 5.19038e-20)
(-0.431978 -0.0214883 -5.40435e-20)
(-0.389346 -0.0214326 0)
(-0.346612 -0.0213625 0)
(-0.303803 -0.0212778 0)
(-0.260949 -0.0211781 6.22528e-20)
(-0.218083 -0.0210632 6.42113e-20)
(-0.175234 -0.0209313 0)
(-0.132438 -0.0207787 6.80071e-20)
(-0.0897256 -0.0206033 6.98428e-20)
(-0.0471284 -0.0204022 -7.16363e-20)
(-0.00467447 -0.0201496 0)
(0.0375475 -0.0198094 0)
(0.0795424 -0.0194285 -7.4999e-20)
(0.121295 -0.0190518 0)
(0.16279 -0.0186847 0)
(0.204018 -0.0183243 0)
(0.244971 -0.0179683 0)
(0.285642 -0.0176154 7.78368e-20)
(0.326018 -0.0172648 7.826e-20)
(0.366089 -0.0169163 0)
(0.405843 -0.01657 7.89777e-20)
(0.44527 -0.0162262 0)
(0.484361 -0.015885 0)
(0.523106 -0.015547 7.97594e-20)
(0.561497 -0.0152125 0)
(0.599528 -0.0148819 8.01033e-20)
(0.637194 -0.0145556 0)
(0.674491 -0.0142339 0)
(0.711414 -0.013917 8.03834e-20)
(0.747961 -0.013605 0)
(0.78413 -0.0132979 8.04287e-20)
(0.819918 -0.0129953 0)
(0.855322 -0.0126966 0)
(0.890335 -0.0124008 0)
(0.924947 -0.0121059 -8.02247e-20)
(0.959143 -0.0118093 0)
(0.992893 -0.0115066 7.99964e-20)
(1.02616 -0.0111911 0)
(1.05886 -0.0108523 0)
(1.09089 -0.0104729 0)
(1.12204 -0.0100237 0)
(1.15203 -0.00944726 0)
(1.18014 -0.00863649 0)
(1.20563 -0.0072698 0)
(1.22389 -0.00457099 -1.58103e-19)
(1.23774 0.00258144 0)
(1.19176 0.0176982 0)
(0.00984283 -0.0575082 7.93466e-20)
(0.0224079 -0.0627439 -7.501e-20)
(0.0270575 -0.0482775 0)
(0.0265737 -0.0309778 4.47115e-20)
(0.0219499 -0.0137946 0)
(0.0137798 0.00221238 2.11614e-20)
(0.00270967 0.0163556 -4.15576e-20)
(-0.0112998 0.0282462 -4.08176e-20)
(-0.0283718 0.037945 0)
(-0.0485484 0.0459245 -3.92505e-20)
(-0.0718431 0.0528274 -1.92705e-20)
(-0.0982342 0.0592478 0)
(-0.127672 0.0656067 0)
(-0.160076 0.0721387 0)
(-0.195338 0.0789244 0)
(-0.233317 0.0859171 -1.73592e-20)
(-0.273833 0.0929822 0)
(-0.316657 0.0999386 3.31206e-20)
(-0.361512 0.106589 0)
(-0.408076 0.112743 0)
(-0.455999 0.11823 -3.09742e-20)
(-0.504915 0.122914 0)
(-0.554458 0.126698 2.96577e-20)
(-0.604279 0.129528 -1.45636e-20)
(-0.654057 0.131393 1.42696e-20)
(-0.703507 0.132319 -1.39914e-20)
(-0.752388 0.132367 -1.37292e-20)
(-0.800505 0.131619 0)
(-0.847708 0.13018 0)
(-0.893885 0.128163 1.30344e-20)
(-0.938953 0.125693 -1.27626e-20)
(-0.982854 0.122874 0)
(-1.02555 0.119791 0)
(-1.06702 0.116511 1.22881e-20)
(-1.10726 0.113095 0)
(-1.14629 0.109595 0)
(-1.18413 0.106053 -1.18261e-20)
(-1.2208 0.102503 0)
(-1.25632 0.0989713 1.14798e-20)
(-1.29074 0.095477 -2.28425e-20)
(-1.32406 0.0920335 0)
(-1.35632 0.0886492 0)
(-1.38753 0.0853288 -4.40742e-20)
(-1.41771 0.082074 -4.3609e-20)
(-1.44688 0.0788842 -4.31527e-20)
(-1.47505 0.0757574 2.1282e-20)
(-1.50223 0.0726905 -2.11987e-20)
(-1.52843 0.0696797 -6.27986e-20)
(-1.55365 0.066721 4.13844e-20)
(-1.57789 0.0638106 2.05389e-20)
(-1.60116 0.0609445 0)
(-1.62345 0.0581194 -2.01004e-20)
(-1.64477 0.0553319 1.97645e-20)
(-1.6651 0.0525796 0)
(-1.68445 0.0498599 0)
(-1.70281 0.0471711 0)
(-1.72018 0.0445118 -1.89809e-20)
(-1.73655 0.0418807 0)
(-1.75191 0.0392772 3.69501e-20)
(-1.76626 0.0367005 0)
(-1.7796 0.0341503 3.60062e-20)
(-1.79192 0.0316262 0)
(-1.80321 0.0291279 -3.50321e-20)
(-1.81347 0.026655 0)
(-1.8227 0.0242069 3.40245e-20)
(-1.8309 0.0217825 -1.67377e-20)
(-1.83806 0.0193807 0)
(-1.84419 0.0169999 -3.24445e-20)
(-1.84929 0.0146384 -1.59535e-20)
(-1.85337 0.012294 -1.56716e-20)
(-1.85646 0.00996449 0)
(-1.85858 0.0076502 -1.5108e-20)
(-1.8598 0.00536274 -1.4796e-20)
(-1.86018 0.00313532 0)
(-1.85981 0.00101413 1.41821e-20)
(-1.85856 -0.00097964 -2.77736e-20)
(-1.8563 -0.00287057 0)
(-1.85303 -0.0046959 -1.32183e-20)
(-1.84874 -0.00647107 0)
(-1.84341 -0.00820443 3.77216e-20)
(-1.83705 -0.00989935 0)
(-1.82966 -0.0115572 -3.56687e-20)
(-1.82126 -0.0131782 -1.15078e-20)
(-1.81183 -0.0147623 1.12536e-20)
(-1.80139 -0.0163093 2.17973e-20)
(-1.78994 -0.0178188 -2.10775e-20)
(-1.77749 -0.0192904 0)
(-1.76405 -0.0207239 0)
(-1.74963 -0.0221191 0)
(-1.73423 -0.0234759 5.37215e-20)
(-1.71786 -0.0247941 1.70295e-20)
(-1.70054 -0.0260737 -1.6241e-20)
(-1.68226 -0.0273147 0)
(-1.66305 -0.0285172 -1.49851e-20)
(-1.64292 -0.0296811 1.38286e-20)
(-1.62186 -0.0308067 1.30098e-20)
(-1.59991 -0.031894 0)
(-1.57706 -0.0329431 0)
(-1.55333 -0.0339541 0)
(-1.52874 -0.0349272 9.67106e-21)
(-1.50329 -0.0358626 0)
(-1.477 -0.0367603 -1.63715e-20)
(-1.44989 -0.0376206 -2.17763e-20)
(-1.42197 -0.0384435 1.29508e-20)
(-1.39325 -0.0392293 0)
(-1.36375 -0.0399781 4.98513e-21)
(-1.33348 -0.0406899 0)
(-1.30247 -0.0413649 6.02832e-21)
(-1.27072 -0.0420031 -2.38929e-21)
(-1.23826 -0.0426046 -1.52029e-21)
(-1.20509 -0.0431695 0)
(-1.17125 -0.043698 1.6836e-21)
(-1.13675 -0.0441899 -2.69864e-21)
(-1.10161 -0.0446455 -2.48291e-21)
(-1.06585 -0.0450648 0)
(-1.02948 -0.0454478 -4.22843e-21)
(-0.992538 -0.0457947 -1.47587e-20)
(-0.955034 -0.0461054 0)
(-0.916993 -0.0463803 -1.31128e-20)
(-0.878438 -0.0466193 -1.48277e-20)
(-0.839392 -0.0468226 -1.65337e-20)
(-0.799878 -0.0469904 0)
(-0.759921 -0.047123 0)
(-0.719545 -0.0472205 0)
(-0.678775 -0.0472833 1.13504e-20)
(-0.637637 -0.0473117 1.27218e-20)
(-0.596156 -0.047306 0)
(-0.554358 -0.0472666 2.81425e-20)
(-0.512271 -0.0471939 2.9741e-20)
(-0.469921 -0.0470884 0)
(-0.427335 -0.0469507 3.34236e-20)
(-0.38454 -0.0467811 6.88508e-20)
(-0.341565 -0.0465802 -3.6481e-20)
(-0.298436 -0.0463485 -3.69163e-20)
(-0.255182 -0.0460864 0)
(-0.211832 -0.0457942 0)
(-0.168413 -0.045472 0)
(-0.124955 -0.0451195 -4.37288e-20)
(-0.0814868 -0.0447356 4.40912e-20)
(-0.038039 -0.044319 9.1907e-20)
(0.00535843 -0.0438679 -4.76429e-20)
(0.0486741 -0.0433815 4.76117e-20)
(0.0918797 -0.0428641 4.93955e-20)
(0.134949 -0.0423186 0)
(0.177854 -0.0417317 0)
(0.220584 -0.0411101 -5.08104e-20)
(0.263119 -0.0404767 0)
(0.305437 -0.0398416 0)
(0.34752 -0.0392063 1.06638e-19)
(0.389353 -0.03857 0)
(0.430922 -0.0379319 5.41418e-20)
(0.472213 -0.0372918 -5.54621e-20)
(0.513215 -0.0366499 0)
(0.553915 -0.0360069 5.57509e-20)
(0.594302 -0.0353636 0)
(0.634368 -0.0347209 0)
(0.674102 -0.0340799 -5.77446e-20)
(0.713498 -0.0334418 1.15604e-19)
(0.752549 -0.0328075 -5.84643e-20)
(0.791251 -0.0321781 0)
(0.829598 -0.0315545 0)
(0.867589 -0.0309372 5.87984e-20)
(0.90522 -0.0303267 0)
(0.942489 -0.029723 5.93107e-20)
(0.979396 -0.0291255 0)
(1.01593 -0.0285329 0)
(1.0521 -0.0279428 0)
(1.08789 -0.027351 6.05367e-20)
(1.12327 -0.0267512 0)
(1.15824 -0.0261335 -6.07744e-20)
(1.19273 -0.0254821 0)
(1.22669 -0.0247727 0)
(1.26 -0.0239647 1.21659e-19)
(1.29249 -0.0229902 -1.21807e-19)
(1.32386 -0.0217192 0)
(1.35355 -0.0199097 0)
(1.38095 -0.0169256 0)
(1.40335 -0.0115875 3.69084e-19)
(1.42334 0.000737691 0)
(1.42575 0.0255933 -2.49668e-19)
(0.00361219 -0.0796691 -9.70981e-23)
(0.00275643 -0.0639933 9.6501e-20)
(-0.00492887 -0.0374348 0)
(-0.0154813 -0.0125413 -8.12189e-20)
(-0.0286491 0.0102803 0)
(-0.044128 0.0310298 0)
(-0.061835 0.0497736 3.72085e-23)
(-0.0818399 0.0665793 3.46132e-20)
(-0.104299 0.0815942 3.37644e-20)
(-0.129362 0.0951198 3.30508e-20)
(-0.157109 0.107562 0)
(-0.187518 0.119319 0)
(-0.220467 0.130677 -3.08475e-20)
(-0.255755 0.141776 -6.02866e-20)
(-0.293118 0.152607 5.88968e-20)
(-0.332249 0.163052 0)
(-0.372819 0.172923 5.61876e-20)
(-0.414481 0.182008 -2.74648e-20)
(-0.456896 0.190098 0)
(-0.499736 0.197014 5.23613e-20)
(-0.542703 0.202622 2.55935e-20)
(-0.585535 0.206843 -5.00118e-20)
(-0.628012 0.209652 -2.44556e-20)
(-0.66996 0.21108 0)
(-0.711251 0.211201 4.68378e-20)
(-0.751793 0.210127 4.58765e-20)
(-0.791532 0.207992 0)
(-0.830439 0.204949 4.40956e-20)
(-0.868507 0.201155 0)
(-0.905737 0.196763 4.24931e-20)
(-0.942137 0.191915 2.08817e-20)
(-0.977716 0.186738 0)
(-1.01249 0.181334 0)
(-1.04646 0.17579 0)
(-1.07965 0.170176 0)
(-1.11207 0.164546 0)
(-1.14373 0.158945 0)
(-1.17464 0.153403 3.74775e-20)
(-1.20481 0.147943 -5.54819e-20)
(-1.23425 0.142579 0)
(-1.26294 0.137319 0)
(-1.2909 0.132167 0)
(-1.31812 0.127121 7.80301e-23)
(-1.34459 0.122179 3.47316e-20)
(-1.37031 0.117336 6.85299e-20)
(-1.39528 0.112585 -6.76929e-20)
(-1.41947 0.107921 -3.33936e-20)
(-1.4429 0.103337 3.307e-20)
(-1.46553 0.0988248 -8.13661e-23)
(-1.48737 0.0943801 3.21898e-20)
(-1.5084 0.0899968 0)
(-1.52861 0.0856702 3.14033e-20)
(-1.54799 0.0813959 -7.40219e-23)
(-1.56652 0.0771706 0)
(-1.5842 0.0729915 0)
(-1.601 0.0688564 -2.98389e-20)
(-1.61693 0.0647639 0)
(-1.63196 0.0607128 0)
(-1.6461 0.0567028 2.85989e-20)
(-1.65932 0.0527337 5.65023e-20)
(-1.67161 0.0488056 -2.78911e-20)
(-1.68297 0.044919 0)
(-1.6934 0.0410747 2.70606e-20)
(-1.70287 0.0372733 0)
(-1.7114 0.033516 2.61616e-20)
(-1.71897 0.0298039 2.57791e-20)
(-1.72558 0.0261387 -5.06538e-20)
(-1.73124 0.0225226 -2.48798e-20)
(-1.73594 0.0189589 0)
(-1.73969 0.0154527 4.79918e-20)
(-1.74251 0.0120114 0)
(-1.7444 0.00864542 6.92259e-20)
(-1.74537 0.00536769 4.52244e-20)
(-1.74543 0.00218974 4.42651e-20)
(-1.74455 -0.00088861 -4.32874e-20)
(-1.74271 -0.00389078 6.3414e-20)
(-1.73987 -0.00683344 0)
(-1.73604 -0.00971676 0)
(-1.73122 -0.0125414 -3.92623e-20)
(-1.72539 -0.0153076 -5.72769e-20)
(-1.71857 -0.0180152 0)
(-1.71076 -0.0206638 1.79836e-20)
(-1.70195 -0.0232528 0)
(-1.69215 -0.0257814 -5.08268e-20)
(-1.68137 -0.028249 1.72808e-22)
(-1.66962 -0.0306549 -1.83547e-22)
(-1.65689 -0.0329986 3.0592e-20)
(-1.6432 -0.0352796 0)
(-1.62856 -0.0374975 -2.83014e-20)
(-1.61296 -0.0396521 2.24924e-22)
(-1.59643 -0.0417432 0)
(-1.57896 -0.0437707 0)
(-1.56057 -0.0457347 0)
(-1.54127 -0.0476352 2.21224e-20)
(-1.52107 -0.0494724 0)
(-1.49998 -0.0512463 0)
(-1.47801 -0.0529573 0)
(-1.45517 -0.0546054 0)
(-1.43147 -0.056191 0)
(-1.40693 -0.0577142 1.49918e-20)
(-1.38155 -0.0591754 0)
(-1.35536 -0.0605747 1.21436e-20)
(-1.32837 -0.0619125 1.08695e-20)
(-1.30058 -0.063189 -9.59133e-21)
(-1.27202 -0.0644045 0)
(-1.24269 -0.0655594 -7.02551e-21)
(-1.21262 -0.0666537 0)
(-1.18182 -0.0676877 -4.45129e-21)
(-1.15031 -0.0686616 3.16268e-21)
(-1.1181 -0.0695755 6.37822e-21)
(-1.08521 -0.0704296 0)
(-1.05165 -0.0712242 -1.32813e-21)
(-1.01745 -0.0719594 -1.20273e-21)
(-0.982632 -0.0726354 0)
(-0.947204 -0.0732524 -8.29584e-21)
(-0.91119 -0.0738105 -1.08389e-20)
(-0.87461 -0.07431 2.04645e-20)
(-0.837487 -0.0747511 0)
(-0.799841 -0.0751341 9.61423e-21)
(-0.761694 -0.0754594 1.08656e-20)
(-0.723069 -0.0757271 3.55016e-20)
(-0.68399 -0.0759377 0)
(-0.644479 -0.0760917 0)
(-0.60456 -0.0761896 0)
(-0.564259 -0.0762319 1.61625e-20)
(-0.5236 -0.0762192 0)
(-0.482609 -0.0761522 0)
(-0.44131 -0.0760317 -2.05468e-20)
(-0.399731 -0.0758584 -2.1706e-20)
(-0.357897 -0.0756332 0)
(-0.315835 -0.0753569 0)
(-0.273571 -0.0750306 -5.02021e-20)
(-0.231134 -0.074655 0)
(-0.188549 -0.0742312 5.45807e-20)
(-0.145843 -0.0737599 5.59199e-20)
(-0.103046 -0.0732418 0)
(-0.0601832 -0.0726771 0)
(-0.0172832 -0.0720665 -6.21453e-20)
(0.0256261 -0.0714101 -7.71482e-22)
(0.0685166 -0.0707075 -7.58269e-22)
(0.111361 -0.0699585 0)
(0.154131 -0.0691643 -1.37517e-19)
(0.196804 -0.0683294 0)
(0.239357 -0.067462 0)
(0.281783 -0.0665668 0)
(0.324065 -0.0656455 7.44194e-20)
(0.366178 -0.0647057 0)
(0.408097 -0.0637544 -1.52404e-19)
(0.4498 -0.0627945 -7.80014e-20)
(0.491268 -0.0618272 0)
(0.532484 -0.060853 -8.01689e-20)
(0.573433 -0.0598727 0)
(0.614102 -0.0588873 0)
(0.654479 -0.0578981 -2.48175e-19)
(0.694552 -0.0569068 1.66893e-19)
(0.734313 -0.0559151 0)
(0.773752 -0.0549247 1.70289e-19)
(0.812862 -0.0539375 -8.64406e-20)
(0.851637 -0.0529552 0)
(0.890073 -0.0519796 0)
(0.928165 -0.0510119 0)
(0.965911 -0.0500533 -2.66646e-19)
(1.00331 -0.0491046 0)
(1.04036 -0.0481656 -9.03455e-20)
(1.07705 -0.0472356 0)
(1.11339 -0.0463124 0)
(1.14938 -0.0453922 0)
(1.18499 -0.0444686 0)
(1.22022 -0.0435314 0)
(1.25504 -0.0425648 0)
(1.28941 -0.0415443 -1.86177e-19)
(1.32328 -0.0404317 0)
(1.35652 -0.0391646 -9.40954e-20)
(1.389 -0.0376397 2.82602e-19)
(1.42045 -0.0356701 0)
(1.45044 -0.0329159 0)
(1.47853 -0.0286341 -1.90443e-19)
(1.5031 -0.0215101 -1.92158e-19)
(1.52624 -0.00781973 1.93571e-19)
(1.5408 0.0183679 1.96254e-19)
(-0.00491428 -0.0708537 -1.54685e-19)
(-0.0165129 -0.0407638 -1.38943e-19)
(-0.0322435 -0.00881024 -8.17677e-20)
(-0.0495102 0.0199752 -3.70593e-20)
(-0.068441 0.0463264 0)
(-0.0888706 0.0706507 6.58119e-20)
(-0.110839 0.0931302 -3.16457e-20)
(-0.134482 0.113877 0)
(-0.159934 0.133024 -2.99338e-20)
(-0.187286 0.150766 0)
(-0.216547 0.167327 5.69362e-20)
(-0.247632 0.182904 0)
(-0.280368 0.197618 2.71347e-20)
(-0.314512 0.211485 5.29529e-20)
(-0.349782 0.22443 -5.16605e-20)
(-0.385876 0.236309 0)
(-0.422496 0.246952 -4.91578e-20)
(-0.459362 0.256189 0)
(-0.496228 0.263879 0)
(-0.532887 0.26993 -4.5651e-20)
(-0.569177 0.2743 0)
(-0.604982 0.277006 -6.45648e-23)
(-0.640223 0.278114 0)
(-0.674862 0.277733 0)
(-0.708884 0.276003 7.14238e-23)
(-0.742298 0.273083 -3.97292e-20)
(-0.775123 0.269144 -3.896e-20)
(-0.807387 0.264357 -3.80977e-20)
(-0.839117 0.258887 0)
(-0.870337 0.252885 -7.33032e-20)
(-0.901067 0.246486 0)
(-0.931317 0.239809 -3.5336e-20)
(-0.961096 0.23295 0)
(-0.990406 0.225988 0)
(-1.01924 0.218988 3.3555e-20)
(-1.04761 0.211998 0)
(-1.07548 0.205055 -3.24977e-20)
(-1.10287 0.198187 -5.41654e-25)
(-1.12974 0.19141 6.30573e-20)
(-1.15609 0.184736 -6.21346e-20)
(-1.1819 0.17817 0)
(-1.20716 0.171714 0)
(-1.23184 0.165364 -2.97606e-20)
(-1.25594 0.159118 0)
(-1.27942 0.152968 -2.90078e-20)
(-1.30228 0.14691 2.86242e-20)
(-1.32449 0.140935 2.82479e-20)
(-1.34605 0.135037 0)
(-1.36691 0.129209 -2.75129e-20)
(-1.38708 0.123447 -2.71525e-20)
(-1.40654 0.117744 5.35354e-20)
(-1.42526 0.112095 -2.64414e-20)
(-1.44323 0.106499 -2.60894e-20)
(-1.46043 0.10095 0)
(-1.47684 0.0954489 0)
(-1.49246 0.0899925 2.50393e-20)
(-1.50726 0.0845809 0)
(-1.52123 0.079214 0)