/*--------------------------------*- C++ -*----------------------------------*\
| =========                 |                                                 |
| \\      /  F ield         | OpenFOAM: The Open Source CFD Toolbox           |
|  \\    /   O peration     | Version:  2412                                  |
|   \\  /    A nd           | Website:  www.openfoam.com                      |
|    \\/     M anipulation  |                                                 |
\*---------------------------------------------------------------------------*/
FoamFile
{
    version     2.0;
    format      ascii;
    arch        "LSB;label=32;scalar=64";
    class       volVectorField;
    location    "0.47";
    object      U;
}
// * * * * * * * * * * * * * * * * * * * * * * * * * * * * * * * * * * * * * //

dimensions      [0 1 -1 0 0 0 0];

internalField   nonuniform List<vector> 
800
(
(0.00158625 0 0)
(0.00475877 0 0)
(0.00793127 0 0)
(0.0111037 0 0)
(0.0142762 0 0)
(0.0174485 0 0)
(0.0206208 0 0)
(0.023793 0 0)
(0.0269652 0 0)
(0.0301372 0 0)
(0.033309 0 0)
(0.0364808 0 0)
(0.0396524 0 0)
(0.0428238 0 0)
(0.045995 0 0)
(0.0491661 0 0)
(0.052337 0 0)
(0.0555076 0 0)
(0.058678 0 0)
(0.0618482 0 0)
(0.0650181 0 0)
(0.0681877 0 0)
(0.0713571 0 0)
(0.0745262 0 0)
(0.0776949 0 0)
(0.0808634 0 0)
(0.0840315 0 0)
(0.0871992 0 0)
(0.0903666 0 0)
(0.0935336 0 0)
(0.0967003 0 0)
(0.0998665 0 0)
(0.103032 0 0)
(0.106198 0 0)
(0.109363 0 0)
(0.112527 0 0)
(0.115691 0 0)
(0.118855 0 0)
(0.122018 0 0)
(0.12518 0 0)
(0.128342 0 0)
(0.131504 0 0)
(0.134665 0 0)
(0.137825 0 0)
(0.140985 0 0)
(0.144144 0 0)
(0.147303 0 0)
(0.150461 0 0)
(0.153618 0 0)
(0.156775 0 0)
(0.159931 0 0)
(0.163086 0 0)
(0.166241 0 0)
(0.169395 0 0)
(0.172548 0 0)
(0.1757 0 0)
(0.178852 0 0)
(0.182003 0 0)
(0.185153 0 0)
(0.188303 0 0)
(0.191452 0 0)
(0.194599 0 0)
(0.197746 0 0)
(0.200893 0 0)
(0.204038 0 0)
(0.207182 0 0)
(0.210326 0 0)
(0.213468 0 0)
(0.21661 0 0)
(0.219751 0 0)
(0.222891 0 0)
(0.22603 0 0)
(0.229168 0 0)
(0.232305 0 0)
(0.235441 0 0)
(0.238576 0 0)
(0.241709 0 0)
(0.244842 0 0)
(0.247974 0 0)
(0.251105 0 0)
(0.254234 0 0)
(0.257363 0 0)
(0.26049 0 0)
(0.263616 0 0)
(0.266741 0 0)
(0.269865 0 0)
(0.272988 0 0)
(0.276109 0 0)
(0.27923 0 0)
(0.282349 0 0)
(0.285467 0 0)
(0.288583 0 0)
(0.291698 0 0)
(0.294812 0 0)
(0.297925 0 0)
(0.301036 0 0)
(0.304146 0 0)
(0.307255 0 0)
(0.310362 0 0)
(0.313468 0 0)
(0.316572 0 0)
(0.319675 0 0)
(0.322777 0 0)
(0.325877 0 0)
(0.328975 0 0)
(0.332072 0 0)
(0.335168 0 0)
(0.338262 0 0)
(0.341354 0 0)
(0.344445 0 0)
(0.347535 0 0)
(0.350622 0 0)
(0.353708 0 0)
(0.356793 0 0)
(0.359876 0 0)
(0.362957 0 0)
(0.366036 0 0)
(0.369114 0 0)
(0.37219 0 0)
(0.375264 0 0)
(0.378337 0 0)
(0.381407 0 0)
(0.384476 0 0)
(0.387544 0 0)
(0.390609 0 0)
(0.393672 0 0)
(0.396734 0 0)
(0.399793 0 0)
(0.402851 0 0)
(0.405907 0 0)
(0.408961 0 0)
(0.412013 0 0)
(0.415062 0 0)
(0.41811 0 0)
(0.421156 0 0)
(0.4242 0 0)
(0.427241 0 0)
(0.430281 0 0)
(0.433319 0 0)
(0.436354 0 0)
(0.439387 0 0)
(0.442418 0 0)
(0.445447 0 0)
(0.448473 0 0)
(0.451498 0 0)
(0.45452 0 0)
(0.45754 0 0)
(0.460557 0 0)
(0.463572 0 0)
(0.466585 0 0)
(0.469595 0 0)
(0.472603 0 0)
(0.475609 0 0)
(0.478612 0 0)
(0.481613 0 0)
(0.484611 0 0)
(0.487607 0 0)
(0.4906 0 0)
(0.49359 0 0)
(0.496578 0 0)
(0.499564 0 0)
(0.502547 0 0)
(0.505527 0 0)
(0.508504 0 0)
(0.511479 0 0)
(0.514451 0 0)
(0.51742 0 0)
(0.520386 0 0)
(0.52335 0 0)
(0.526311 0 0)
(0.529269 0 0)
(0.532224 0 0)
(0.535176 0 0)
(0.538125 0 0)
(0.541071 0 0)
(0.544014 0 0)
(0.546955 0 0)
(0.549892 0 0)
(0.552826 0 0)
(0.555757 0 0)
(0.558685 0 0)
(0.561609 0 0)
(0.564531 0 0)
(0.567449 0 0)
(0.570364 0 0)
(0.573275 0 0)
(0.576184 0 0)
(0.579089 0 0)
(0.581991 0 0)
(0.584889 0 0)
(0.587784 0 0)
(0.590675 0 0)
(0.593563 0 0)
(0.596447 0 0)
(0.599328 0 0)
(0.602205 0 0)
(0.605078 0 0)
(0.607948 0 0)
(0.610814 0 0)
(0.613677 0 0)
(0.616535 0 0)
(0.61939 0 0)
(0.622241 0 0)
(0.625088 0 0)
(0.627932 0 0)
(0.630771 0 0)
(0.633606 0 0)
(0.636437 0 0)
(0.639265 0 0)
(0.642088 0 0)
(0.644907 0 0)
(0.647721 0 0)
(0.650532 0 0)
(0.653338 0 0)
(0.65614 0 0)
(0.658938 0 0)
(0.661732 0 0)
(0.66452 0 0)
(0.667305 0 0)
(0.670085 0 0)
(0.67286 0 0)
(0.675631 0 0)
(0.678398 0 0)
(0.681159 0 0)
(0.683916 0 0)
(0.686668 0 0)
(0.689415 0 0)
(0.692158 0 0)
(0.694895 0 0)
(0.697628 0 0)
(0.700355 0 0)
(0.703078 0 0)
(0.705795 0 0)
(0.708508 0 0)
(0.711215 0 0)
(0.713917 0 0)
(0.716613 0 0)
(0.719305 0 0)
(0.72199 0 0)
(0.724671 0 0)
(0.727346 0 0)
(0.730015 0 0)
(0.732679 0 0)
(0.735337 0 0)
(0.737989 0 0)
(0.740635 0 0)
(0.743276 0 0)
(0.745911 0 0)
(0.74854 0 0)
(0.751162 0 0)
(0.753779 0 0)
(0.75639 0 0)
(0.758994 0 0)
(0.761592 0 0)
(0.764183 0 0)
(0.766769 0 0)
(0.769347 0 0)
(0.77192 0 0)
(0.774485 0 0)
(0.777044 0 0)
(0.779596 0 0)
(0.782142 0 0)
(0.78468 0 0)
(0.787211 0 0)
(0.789736 0 0)
(0.792253 0 0)
(0.794763 0 0)
(0.797266 0 0)
(0.799761 0 0)
(0.802249 0 0)
(0.804729 0 0)
(0.807202 0 0)
(0.809667 0 0)
(0.812124 0 0)
(0.814574 0 0)
(0.817015 0 0)
(0.819449 0 0)
(0.821874 0 0)
(0.824291 0 0)
(0.826699 0 0)
(0.8291 0 0)
(0.831491 0 0)
(0.833874 0 0)
(0.836249 0 0)
(0.838614 0 0)
(0.840971 0 0)
(0.843318 0 0)
(0.845656 0 0)
(0.847985 0 0)
(0.850305 0 0)
(0.852615 0 0)
(0.854916 0 0)
(0.857206 0 0)
(0.859487 0 0)
(0.861758 0 0)
(0.864019 0 0)
(0.86627 0 0)
(0.86851 0 0)
(0.87074 0 0)
(0.872959 0 0)
(0.875167 0 0)
(0.877364 0 0)
(0.879551 0 0)
(0.881726 0 0)
(0.883889 0 0)
(0.886042 0 0)
(0.888182 0 0)
(0.890311 0 0)
(0.892428 0 0)
(0.894532 0 0)
(0.896625 0 0)
(0.898704 0 0)
(0.900771 0 0)
(0.902826 0 0)
(0.904867 0 0)
(0.906895 0 0)
(0.908909 0 0)
(0.91091 0 0)
(0.912897 0 0)
(0.914871 0 0)
(0.916829 0 0)
(0.918774 0 0)
(0.920704 0 0)
(0.922618 0 0)
(0.924518 0 0)
(0.926403 0 0)
(0.928271 0 0)
(0.930124 0 0)
(0.931961 0 0)
(0.933781 0 0)
(0.935585 0 0)
(0.937372 0 0)
(0.939142 0 0)
(0.940894 0 0)
(0.942629 0 0)
(0.944345 0 0)
(0.946043 0 0)
(0.947722 0 0)
(0.949382 0 0)
(0.951023 0 0)
(0.952644 0 0)
(0.954245 0 0)
(0.955826 0 0)
(0.957386 0 0)
(0.958924 0 0)
(0.960441 0 0)
(0.961936 0 0)
(0.963408 0 0)
(0.964858 0 0)
(0.966284 0 0)
(0.967686 0 0)
(0.969064 0 0)
(0.970417 0 0)
(0.971745 0 0)
(0.973047 0 0)
(0.974323 0 0)
(0.975571 0 0)
(0.976792 0 0)
(0.977985 0 0)
(0.979149 0 0)
(0.980284 0 0)
(0.981389 0 0)
(0.982462 0 0)
(0.983504 0 0)
(0.984514 0 0)
(0.985491 0 0)
(0.986433 0 0)
(0.987341 0 0)
(0.988214 0 0)
(0.989049 0 0)
(0.989847 0 0)
(0.990607 0 0)
(0.991327 0 0)
(0.992006 0 0)
(0.992643 0 0)
(0.993238 0 0)
(0.993788 0 0)
(0.994292 0 0)
(0.99475 0 0)
(0.995159 0 0)
(0.995518 0 0)
(0.995825 0 0)
(0.99608 0 0)
(0.996279 0 0)
(0.996421 0 0)
(0.996505 0 0)
(0.996527 0 0)
(0.996487 0 0)
(0.99638 0 0)
(0.996206 0 0)
(0.995961 0 0)
(0.995643 0 0)
(0.995248 0 0)
(0.994772 0 0)
(0.994217 0 0)
(0.993543 0 0)
(0.993081 0 0)
(0.98961 0 0)
(1.01341 0 0)
(0.612361 0 0)
(-0.610944 0 0)
(-1.01342 0 0)
(-0.989609 0 0)
(-0.99308 0 0)
(-0.993543 0 0)
(-0.994217 0 0)
(-0.994772 0 0)
(-0.995247 0 0)
(-0.995643 0 0)
(-0.995961 0 0)
(-0.996206 0 0)
(-0.99638 0 0)
(-0.996487 0 0)
(-0.996527 0 0)
(-0.996505 0 0)
(-0.996421 0 0)
(-0.996279 0 0)
(-0.99608 0 0)
(-0.995825 0 0)
(-0.995518 0 0)
(-0.995159 0 0)
(-0.99475 0 0)
(-0.994292 0 0)
(-0.993788 0 0)
(-0.993238 0 0)
(-0.992643 0 0)
(-0.992006 0 0)
(-0.991327 0 0)
(-0.990607 0 0)
(-0.989847 0 0)
(-0.989049 0 0)
(-0.988213 0 0)
(-0.987341 0 0)
(-0.986433 0 0)
(-0.98549 0 0)
(-0.984514 0 0)
(-0.983504 0 0)
(-0.982462 0 0)
(-0.981388 0 0)
(-0.980283 0 0)
(-0.979149 0 0)
(-0.977985 0 0)
(-0.976792 0 0)
(-0.975571 0 0)
(-0.974322 0 0)
(-0.973046 0 0)
(-0.971744 0 0)
(-0.970417 0 0)
(-0.969063 0 0)
(-0.967685 0 0)
(-0.966283 0 0)
(-0.964857 0 0)
(-0.963407 0 0)
(-0.961935 0 0)
(-0.96044 0 0)
(-0.958923 0 0)
(-0.957385 0 0)
(-0.955825 0 0)
(-0.954244 0 0)
(-0.952643 0 0)
(-0.951022 0 0)
(-0.949381 0 0)
(-0.947721 0 0)
(-0.946042 0 0)
(-0.944344 0 0)
(-0.942627 0 0)
(-0.940893 0 0)
(-0.93914 0 0)
(-0.937371 0 0)
(-0.935584 0 0)
(-0.93378 0 0)
(-0.93196 0 0)
(-0.930123 0 0)
(-0.92827 0 0)
(-0.926401 0 0)
(-0.924517 0 0)
(-0.922617 0 0)
(-0.920702 0 0)
(-0.918772 0 0)
(-0.916828 0 0)
(-0.914869 0 0)
(-0.912896 0 0)
(-0.910909 0 0)
(-0.908908 0 0)
(-0.906893 0 0)
(-0.904865 0 0)
(-0.902824 0 0)
(-0.90077 0 0)
(-0.898702 0 0)
(-0.896623 0 0)
(-0.89453 0 0)
(-0.892426 0 0)
(-0.890309 0 0)
(-0.88818 0 0)
(-0.88604 0 0)
(-0.883887 0 0)
(-0.881724 0 0)
(-0.879549 0 0)
(-0.877362 0 0)
(-0.875165 0 0)
(-0.872957 0 0)
(-0.870737 0 0)
(-0.868508 0 0)
(-0.866268 0 0)
(-0.864017 0 0)
(-0.861756 0 0)
(-0.859485 0 0)
(-0.857204 0 0)
(-0.854914 0 0)
(-0.852613 0 0)
(-0.850303 0 0)
(-0.847983 0 0)
(-0.845654 0 0)
(-0.843316 0 0)
(-0.840968 0 0)
(-0.838612 0 0)
(-0.836246 0 0)
(-0.833872 0 0)
(-0.831489 0 0)
(-0.829097 0 0)
(-0.826697 0 0)
(-0.824289 0 0)
(-0.821872 0 0)
(-0.819446 0 0)
(-0.817013 0 0)
(-0.814572 0 0)
(-0.812122 0 0)
(-0.809665 0 0)
(-0.8072 0 0)
(-0.804727 0 0)
(-0.802247 0 0)
(-0.799759 0 0)
(-0.797263 0 0)
(-0.794761 0 0)
(-0.792251 0 0)
(-0.789733 0 0)
(-0.787209 0 0)
(-0.784678 0 0)
(-0.782139 0 0)
(-0.779594 0 0)
(-0.777042 0 0)
(-0.774483 0 0)
(-0.771917 0 0)
(-0.769345 0 0)
(-0.766766 0 0)
(-0.764181 0 0)
(-0.76159 0 0)
(-0.758992 0 0)
(-0.756387 0 0)
(-0.753777 0 0)
(-0.75116 0 0)
(-0.748537 0 0)
(-0.745909 0 0)
(-0.743274 0 0)
(-0.740633 0 0)
(-0.737987 0 0)
(-0.735334 0 0)
(-0.732676 0 0)
(-0.730013 0 0)
(-0.727343 0 0)
(-0.724669 0 0)
(-0.721988 0 0)
(-0.719302 0 0)
(-0.716611 0 0)
(-0.713915 0 0)
(-0.711213 0 0)
(-0.708506 0 0)
(-0.705793 0 0)
(-0.703076 0 0)
(-0.700353 0 0)
(-0.697626 0 0)
(-0.694893 0 0)
(-0.692156 0 0)
(-0.689413 0 0)
(-0.686666 0 0)
(-0.683914 0 0)
(-0.681157 0 0)
(-0.678395 0 0)
(-0.675629 0 0)
(-0.672858 0 0)
(-0.670083 0 0)
(-0.667303 0 0)
(-0.664518 0 0)
(-0.66173 0 0)
(-0.658936 0 0)
(-0.656138 0 0)
(-0.653336 0 0)
(-0.65053 0 0)
(-0.64772 0 0)
(-0.644905 0 0)
(-0.642086 0 0)
(-0.639263 0 0)
(-0.636435 0 0)
(-0.633604 0 0)
(-0.630769 0 0)
(-0.62793 0 0)
(-0.625086 0 0)
(-0.622239 0 0)
(-0.619388 0 0)
(-0.616534 0 0)
(-0.613675 0 0)
(-0.610813 0 0)
(-0.607946 0 0)
(-0.605077 0 0)
(-0.602203 0 0)
(-0.599326 0 0)
(-0.596445 0 0)
(-0.593561 0 0)
(-0.590673 0 0)
(-0.587782 0 0)
(-0.584887 0 0)
(-0.581989 0 0)
(-0.579087 0 0)
(-0.576182 0 0)
(-0.573274 0 0)
(-0.570362 0 0)
(-0.567447 0 0)
(-0.564529 0 0)
(-0.561608 0 0)
(-0.558683 0 0)
(-0.555755 0 0)
(-0.552824 0 0)
(-0.54989 0 0)
(-0.546953 0 0)
(-0.544013 0 0)
(-0.54107 0 0)
(-0.538123 0 0)
(-0.535174 0 0)
(-0.532222 0 0)
(-0.529267 0 0)
(-0.526309 0 0)
(-0.523349 0 0)
(-0.520385 0 0)
(-0.517418 0 0)
(-0.514449 0 0)
(-0.511477 0 0)
(-0.508503 0 0)
(-0.505525 0 0)
(-0.502545 0 0)
(-0.499562 0 0)
(-0.496577 0 0)
(-0.493589 0 0)
(-0.490598 0 0)
(-0.487605 0 0)
(-0.48461 0 0)
(-0.481612 0 0)
(-0.478611 0 0)
(-0.475608 0 0)
(-0.472602 0 0)
(-0.469594 0 0)
(-0.466584 0 0)
(-0.463571 0 0)
(-0.460556 0 0)
(-0.457538 0 0)
(-0.454519 0 0)
(-0.451497 0 0)
(-0.448472 0 0)
(-0.445446 0 0)
(-0.442417 0 0)
(-0.439386 0 0)
(-0.436353 0 0)
(-0.433317 0 0)
(-0.43028 0 0)
(-0.42724 0 0)
(-0.424199 0 0)
(-0.421155 0 0)
(-0.418109 0 0)
(-0.415061 0 0)
(-0.412012 0 0)
(-0.40896 0 0)
(-0.405906 0 0)
(-0.40285 0 0)
(-0.399792 0 0)
(-0.396733 0 0)
(-0.393671 0 0)
(-0.390608 0 0)
(-0.387543 0 0)
(-0.384476 0 0)
(-0.381407 0 0)
(-0.378336 0 0)
(-0.375263 0 0)
(-0.372189 0 0)
(-0.369113 0 0)
(-0.366035 0 0)
(-0.362956 0 0)
(-0.359875 0 0)
(-0.356792 0 0)
(-0.353708 0 0)
(-0.350622 0 0)
(-0.347534 0 0)
(-0.344444 0 0)
(-0.341354 0 0)
(-0.338261 0 0)
(-0.335167 0 0)
(-0.332072 0 0)
(-0.328975 0 0)
(-0.325876 0 0)
(-0.322776 0 0)
(-0.319674 0 0)
(-0.316571 0 0)
(-0.313467 0 0)
(-0.310361 0 0)
(-0.307254 0 0)
(-0.304146 0 0)
(-0.301036 0 0)
(-0.297924 0 0)
(-0.294812 0 0)
(-0.291698 0 0)
(-0.288583 0 0)
(-0.285466 0 0)
(-0.282348 0 0)
(-0.279229 0 0)
(-0.276109 0 0)
(-0.272987 0 0)
(-0.269865 0 0)
(-0.266741 0 0)
(-0.263616 0 0)
(-0.26049 0 0)
(-0.257362 0 0)
(-0.254234 0 0)
(-0.251104 0 0)
(-0.247974 0 0)
(-0.244842 0 0)
(-0.241709 0 0)
(-0.238575 0 0)
(-0.23544 0 0)
(-0.232304 0 0)
(-0.229167 0 0)
(-0.226029 0 0)
(-0.222891 0 0)
(-0.219751 0 0)
(-0.21661 0 0)
(-0.213468 0 0)
(-0.210326 0 0)
(-0.207182 0 0)
(-0.204038 0 0)
(-0.200892 0 0)
(-0.197746 0 0)
(-0.194599 0 0)
(-0.191451 0 0)
(-0.188303 0 0)
(-0.185153 0 0)
(-0.182003 0 0)
(-0.178852 0 0)
(-0.1757 0 0)
(-0.172548 0 0)
(-0.169394 0 0)
(-0.16624 0 0)
(-0.163086 0 0)
(-0.15993 0 0)
(-0.156774 0 0)
(-0.153618 0 0)
(-0.15046 0 0)
(-0.147302 0 0)
(-0.144144 0 0)
(-0.140985 0 0)
(-0.137825 0 0)
(-0.134665 0 0)
(-0.131504 0 0)
(-0.128342 0 0)
(-0.12518 0 0)
(-0.122018 0 0)
(-0.118855 0 0)
(-0.115691 0 0)
(-0.112527 0 0)
(-0.109363 0 0)
(-0.106198 0 0)
(-0.103032 0 0)
(-0.0998664 0 0)
(-0.0967002 0 0)
(-0.0935336 0 0)
(-0.0903666 0 0)
(-0.0871992 0 0)
(-0.0840314 0 0)
(-0.0808633 0 0)
(-0.0776949 0 0)
(-0.0745261 0 0)
(-0.0713571 0 0)
(-0.0681877 0 0)
(-0.0650181 0 0)
(-0.0618482 0 0)
(-0.058678 0 0)
(-0.0555076 0 0)
(-0.052337 0 0)
(-0.0491661 0 0)
(-0.045995 0 0)
(-0.0428238 0 0)
(-0.0396524 0 0)
(-0.0364808 0 0)
(-0.033309 0 0)
(-0.0301372 0 0)
(-0.0269652 0 0)
(-0.0237931 0 0)
(-0.0206208 0 0)
(-0.0174486 0 0)
(-0.0142762 0 0)
(-0.0111038 0 0)
(-0.00793129 0 0)
(-0.00475879 0 0)
(-0.00158626 0 0)
)
;

boundaryField
{
    left
    {
        type            fixedValue;
        value           uniform (0 0 0);
    }
    right
    {
        type            fixedValue;
        value           uniform (0 0 0);
    }
    frontBackUpDown
    {
        type            empty;
    }
}


// ************************************************************************* //
