/*--------------------------------*- C++ -*----------------------------------*\
| =========                 |                                                 |
| \\      /  F ield         | OpenFOAM: The Open Source CFD Toolbox           |
|  \\    /   O peration     | Version:  2412                                  |
|   \\  /    A nd           | Website:  www.openfoam.com                      |
|    \\/     M anipulation  |                                                 |
\*---------------------------------------------------------------------------*/
FoamFile
{
    version     2.0;
    format      ascii;
    arch        "LSB;label=32;scalar=64";
    class       volVectorField;
    location    "0.47";
    object      U_0;
}
// * * * * * * * * * * * * * * * * * * * * * * * * * * * * * * * * * * * * * //

dimensions      [0 1 -1 0 0 0 0];

internalField   nonuniform List<vector> 
800
(
(0.00158725 0 0)
(0.00476178 0 0)
(0.0079363 0 0)
(0.0111108 0 0)
(0.0142852 0 0)
(0.0174596 0 0)
(0.0206339 0 0)
(0.0238081 0 0)
(0.0269822 0 0)
(0.0301563 0 0)
(0.0333301 0 0)
(0.0365039 0 0)
(0.0396775 0 0)
(0.0428509 0 0)
(0.0460242 0 0)
(0.0491973 0 0)
(0.0523701 0 0)
(0.0555428 0 0)
(0.0587152 0 0)
(0.0618874 0 0)
(0.0650593 0 0)
(0.0682309 0 0)
(0.0714023 0 0)
(0.0745734 0 0)
(0.0777441 0 0)
(0.0809146 0 0)
(0.0840847 0 0)
(0.0872544 0 0)
(0.0904238 0 0)
(0.0935928 0 0)
(0.0967614 0 0)
(0.0999297 0 0)
(0.103097 0 0)
(0.106265 0 0)
(0.109432 0 0)
(0.112598 0 0)
(0.115764 0 0)
(0.11893 0 0)
(0.122095 0 0)
(0.125259 0 0)
(0.128423 0 0)
(0.131587 0 0)
(0.13475 0 0)
(0.137912 0 0)
(0.141074 0 0)
(0.144235 0 0)
(0.147396 0 0)
(0.150555 0 0)
(0.153715 0 0)
(0.156873 0 0)
(0.160031 0 0)
(0.163189 0 0)
(0.166345 0 0)
(0.169501 0 0)
(0.172657 0 0)
(0.175811 0 0)
(0.178965 0 0)
(0.182118 0 0)
(0.18527 0 0)
(0.188421 0 0)
(0.191572 0 0)
(0.194722 0 0)
(0.197871 0 0)
(0.201019 0 0)
(0.204166 0 0)
(0.207312 0 0)
(0.210458 0 0)
(0.213603 0 0)
(0.216746 0 0)
(0.219889 0 0)
(0.223031 0 0)
(0.226172 0 0)
(0.229311 0 0)
(0.23245 0 0)
(0.235588 0 0)
(0.238725 0 0)
(0.241861 0 0)
(0.244995 0 0)
(0.248129 0 0)
(0.251262 0 0)
(0.254393 0 0)
(0.257524 0 0)
(0.260653 0 0)
(0.263781 0 0)
(0.266908 0 0)
(0.270034 0 0)
(0.273158 0 0)
(0.276282 0 0)
(0.279404 0 0)
(0.282525 0 0)
(0.285644 0 0)
(0.288763 0 0)
(0.29188 0 0)
(0.294996 0 0)
(0.29811 0 0)
(0.301223 0 0)
(0.304335 0 0)
(0.307445 0 0)
(0.310555 0 0)
(0.313662 0 0)
(0.316768 0 0)
(0.319873 0 0)
(0.322977 0 0)
(0.326078 0 0)
(0.329179 0 0)
(0.332278 0 0)
(0.335375 0 0)
(0.338471 0 0)
(0.341565 0 0)
(0.344658 0 0)
(0.347749 0 0)
(0.350839 0 0)
(0.353926 0 0)
(0.357013 0 0)
(0.360097 0 0)
(0.36318 0 0)
(0.366261 0 0)
(0.369341 0 0)
(0.372419 0 0)
(0.375495 0 0)
(0.378569 0 0)
(0.381641 0 0)
(0.384712 0 0)
(0.387781 0 0)
(0.390848 0 0)
(0.393913 0 0)
(0.396976 0 0)
(0.400038 0 0)
(0.403097 0 0)
(0.406155 0 0)
(0.40921 0 0)
(0.412264 0 0)
(0.415315 0 0)
(0.418365 0 0)
(0.421412 0 0)
(0.424458 0 0)
(0.427501 0 0)
(0.430542 0 0)
(0.433581 0 0)
(0.436618 0 0)
(0.439653 0 0)
(0.442686 0 0)
(0.445716 0 0)
(0.448745 0 0)
(0.45177 0 0)
(0.454794 0 0)
(0.457816 0 0)
(0.460835 0 0)
(0.463851 0 0)
(0.466866 0 0)
(0.469878 0 0)
(0.472887 0 0)
(0.475895 0 0)
(0.478899 0 0)
(0.481902 0 0)
(0.484901 0 0)
(0.487898 0 0)
(0.490893 0 0)
(0.493885 0 0)
(0.496875 0 0)
(0.499862 0 0)
(0.502846 0 0)
(0.505828 0 0)
(0.508806 0 0)
(0.511783 0 0)
(0.514756 0 0)
(0.517727 0 0)
(0.520695 0 0)
(0.52366 0 0)
(0.526622 0 0)
(0.529581 0 0)
(0.532538 0 0)
(0.535491 0 0)
(0.538442 0 0)
(0.54139 0 0)
(0.544334 0 0)
(0.547276 0 0)
(0.550214 0 0)
(0.55315 0 0)
(0.556082 0 0)
(0.559011 0 0)
(0.561937 0 0)
(0.56486 0 0)
(0.56778 0 0)
(0.570696 0 0)
(0.573609 0 0)
(0.576519 0 0)
(0.579425 0 0)
(0.582328 0 0)
(0.585227 0 0)
(0.588123 0 0)
(0.591016 0 0)
(0.593905 0 0)
(0.596791 0 0)
(0.599673 0 0)
(0.602551 0 0)
(0.605426 0 0)
(0.608297 0 0)
(0.611164 0 0)
(0.614028 0 0)
(0.616887 0 0)
(0.619743 0 0)
(0.622596 0 0)
(0.625444 0 0)
(0.628288 0 0)
(0.631129 0 0)
(0.633965 0 0)
(0.636797 0 0)
(0.639626 0 0)
(0.64245 0 0)
(0.64527 0 0)
(0.648086 0 0)
(0.650897 0 0)
(0.653705 0 0)
(0.656508 0 0)
(0.659306 0 0)
(0.662101 0 0)
(0.664891 0 0)
(0.667676 0 0)
(0.670457 0 0)
(0.673233 0 0)
(0.676005 0 0)
(0.678772 0 0)
(0.681535 0 0)
(0.684293 0 0)
(0.687045 0 0)
(0.689794 0 0)
(0.692537 0 0)
(0.695275 0 0)
(0.698009 0 0)
(0.700737 0 0)
(0.70346 0 0)
(0.706179 0 0)
(0.708892 0 0)
(0.711599 0 0)
(0.714302 0 0)
(0.716999 0 0)
(0.719691 0 0)
(0.722378 0 0)
(0.725059 0 0)
(0.727734 0 0)
(0.730404 0 0)
(0.733068 0 0)
(0.735727 0 0)
(0.73838 0 0)
(0.741027 0 0)
(0.743668 0 0)
(0.746303 0 0)
(0.748933 0 0)
(0.751556 0 0)
(0.754173 0 0)
(0.756784 0 0)
(0.759389 0 0)
(0.761987 0 0)
(0.764579 0 0)
(0.767165 0 0)
(0.769744 0 0)
(0.772316 0 0)
(0.774882 0 0)
(0.777441 0 0)
(0.779994 0 0)
(0.782539 0 0)
(0.785078 0 0)
(0.787609 0 0)
(0.790134 0 0)
(0.792651 0 0)
(0.795161 0 0)
(0.797664 0 0)
(0.80016 0 0)
(0.802647 0 0)
(0.805128 0 0)
(0.807601 0 0)
(0.810066 0 0)
(0.812523 0 0)
(0.814972 0 0)
(0.817413 0 0)
(0.819847 0 0)
(0.822272 0 0)
(0.824689 0 0)
(0.827097 0 0)
(0.829497 0 0)
(0.831888 0 0)
(0.834271 0 0)
(0.836645 0 0)
(0.83901 0 0)
(0.841366 0 0)
(0.843713 0 0)
(0.846051 0 0)
(0.84838 0 0)
(0.850699 0 0)
(0.853008 0 0)
(0.855308 0 0)
(0.857598 0 0)
(0.859879 0 0)
(0.862149 0 0)
(0.864409 0 0)
(0.866659 0 0)
(0.868898 0 0)
(0.871127 0 0)
(0.873345 0 0)
(0.875553 0 0)
(0.877749 0 0)
(0.879934 0 0)
(0.882108 0 0)
(0.884271 0 0)
(0.886422 0 0)
(0.888562 0 0)
(0.890689 0 0)
(0.892805 0 0)
(0.894908 0 0)
(0.896999 0 0)
(0.899077 0 0)
(0.901143 0 0)
(0.903196 0 0)
(0.905235 0 0)
(0.907262 0 0)
(0.909275 0 0)
(0.911274 0 0)
(0.913259 0 0)
(0.915231 0 0)
(0.917188 0 0)
(0.91913 0 0)
(0.921058 0 0)
(0.922971 0 0)
(0.924868 0 0)
(0.926751 0 0)
(0.928617 0 0)
(0.930468 0 0)
(0.932302 0 0)
(0.93412 0 0)
(0.935922 0 0)
(0.937706 0 0)
(0.939473 0 0)
(0.941223 0 0)
(0.942954 0 0)
(0.944668 0 0)
(0.946363 0 0)
(0.948039 0 0)
(0.949696 0 0)
(0.951334 0 0)
(0.952952 0 0)
(0.954549 0 0)
(0.956127 0 0)
(0.957683 0 0)
(0.959218 0 0)
(0.960731 0 0)
(0.962222 0 0)
(0.96369 0 0)
(0.965136 0 0)
(0.966558 0 0)
(0.967956 0 0)
(0.96933 0 0)
(0.970678 0 0)
(0.972002 0 0)
(0.973299 0 0)
(0.97457 0 0)
(0.975813 0 0)
(0.977029 0 0)
(0.978217 0 0)
(0.979375 0 0)
(0.980505 0 0)
(0.981603 0 0)
(0.982671 0 0)
(0.983707 0 0)
(0.984711 0 0)
(0.985681 0 0)
(0.986617 0 0)
(0.987518 0 0)
(0.988384 0 0)
(0.989212 0 0)
(0.990003 0 0)
(0.990755 0 0)
(0.991467 0 0)
(0.992138 0 0)
(0.992767 0 0)
(0.993353 0 0)
(0.993894 0 0)
(0.99439 0 0)
(0.994838 0 0)
(0.995237 0 0)
(0.995586 0 0)
(0.995883 0 0)
(0.996127 0 0)
(0.996315 0 0)
(0.996446 0 0)
(0.996518 0 0)
(0.996528 0 0)
(0.996475 0 0)
(0.996355 0 0)
(0.996167 0 0)
(0.995908 0 0)
(0.995575 0 0)
(0.995164 0 0)
(0.994673 0 0)
(0.994101 0 0)
(0.99341 0 0)
(0.992928 0 0)
(0.989448 0 0)
(1.01317 0 0)
(0.612082 0 0)
(-0.610666 0 0)
(-1.01318 0 0)
(-0.989447 0 0)
(-0.992928 0 0)
(-0.99341 0 0)
(-0.994101 0 0)
(-0.994673 0 0)
(-0.995164 0 0)
(-0.995575 0 0)
(-0.995908 0 0)
(-0.996167 0 0)
(-0.996355 0 0)
(-0.996475 0 0)
(-0.996528 0 0)
(-0.996518 0 0)
(-0.996446 0 0)
(-0.996315 0 0)
(-0.996127 0 0)
(-0.995883 0 0)
(-0.995586 0 0)
(-0.995237 0 0)
(-0.994838 0 0)
(-0.99439 0 0)
(-0.993894 0 0)
(-0.993353 0 0)
(-0.992767 0 0)
(-0.992138 0 0)
(-0.991467 0 0)
(-0.990755 0 0)
(-0.990003 0 0)
(-0.989212 0 0)
(-0.988383 0 0)
(-0.987518 0 0)
(-0.986617 0 0)
(-0.985681 0 0)
(-0.98471 0 0)
(-0.983707 0 0)
(-0.982671 0 0)
(-0.981603 0 0)
(-0.980504 0 0)
(-0.979375 0 0)
(-0.978216 0 0)
(-0.977028 0 0)
(-0.975812 0 0)
(-0.974569 0 0)
(-0.973298 0 0)
(-0.972001 0 0)
(-0.970677 0 0)
(-0.969329 0 0)
(-0.967955 0 0)
(-0.966557 0 0)
(-0.965135 0 0)
(-0.963689 0 0)
(-0.962221 0 0)
(-0.96073 0 0)
(-0.959217 0 0)
(-0.957682 0 0)
(-0.956125 0 0)
(-0.954548 0 0)
(-0.952951 0 0)
(-0.951333 0 0)
(-0.949695 0 0)
(-0.948038 0 0)
(-0.946362 0 0)
(-0.944666 0 0)
(-0.942953 0 0)
(-0.941221 0 0)
(-0.939472 0 0)
(-0.937705 0 0)
(-0.93592 0 0)
(-0.934119 0 0)
(-0.932301 0 0)
(-0.930466 0 0)
(-0.928616 0 0)
(-0.926749 0 0)
(-0.924867 0 0)
(-0.922969 0 0)
(-0.921056 0 0)
(-0.919128 0 0)
(-0.917186 0 0)
(-0.915229 0 0)
(-0.913258 0 0)
(-0.911272 0 0)
(-0.909273 0 0)
(-0.90726 0 0)
(-0.905233 0 0)
(-0.903194 0 0)
(-0.901141 0 0)
(-0.899075 0 0)
(-0.896997 0 0)
(-0.894906 0 0)
(-0.892803 0 0)
(-0.890687 0 0)
(-0.88856 0 0)
(-0.88642 0 0)
(-0.884269 0 0)
(-0.882106 0 0)
(-0.879932 0 0)
(-0.877747 0 0)
(-0.875551 0 0)
(-0.873343 0 0)
(-0.871125 0 0)
(-0.868896 0 0)
(-0.866657 0 0)
(-0.864407 0 0)
(-0.862147 0 0)
(-0.859876 0 0)
(-0.857596 0 0)
(-0.855306 0 0)
(-0.853006 0 0)
(-0.850697 0 0)
(-0.848377 0 0)
(-0.846049 0 0)
(-0.843711 0 0)
(-0.841364 0 0)
(-0.839008 0 0)
(-0.836643 0 0)
(-0.834269 0 0)
(-0.831886 0 0)
(-0.829495 0 0)
(-0.827095 0 0)
(-0.824686 0 0)
(-0.82227 0 0)
(-0.819845 0 0)
(-0.817411 0 0)
(-0.81497 0 0)
(-0.812521 0 0)
(-0.810063 0 0)
(-0.807598 0 0)
(-0.805126 0 0)
(-0.802645 0 0)
(-0.800157 0 0)
(-0.797662 0 0)
(-0.795159 0 0)
(-0.792649 0 0)
(-0.790132 0 0)
(-0.787607 0 0)
(-0.785075 0 0)
(-0.782537 0 0)
(-0.779991 0 0)
(-0.777439 0 0)
(-0.77488 0 0)
(-0.772314 0 0)
(-0.769741 0 0)
(-0.767162 0 0)
(-0.764577 0 0)
(-0.761985 0 0)
(-0.759386 0 0)
(-0.756782 0 0)
(-0.754171 0 0)
(-0.751554 0 0)
(-0.74893 0 0)
(-0.746301 0 0)
(-0.743666 0 0)
(-0.741025 0 0)
(-0.738378 0 0)
(-0.735725 0 0)
(-0.733066 0 0)
(-0.730402 0 0)
(-0.727732 0 0)
(-0.725057 0 0)
(-0.722376 0 0)
(-0.719689 0 0)
(-0.716997 0 0)
(-0.7143 0 0)
(-0.711597 0 0)
(-0.708889 0 0)
(-0.706176 0 0)
(-0.703458 0 0)
(-0.700735 0 0)
(-0.698006 0 0)
(-0.695273 0 0)
(-0.692535 0 0)
(-0.689791 0 0)
(-0.687043 0 0)
(-0.68429 0 0)
(-0.681533 0 0)
(-0.67877 0 0)
(-0.676003 0 0)
(-0.673231 0 0)
(-0.670455 0 0)
(-0.667674 0 0)
(-0.664889 0 0)
(-0.662099 0 0)
(-0.659304 0 0)
(-0.656506 0 0)
(-0.653703 0 0)
(-0.650895 0 0)
(-0.648084 0 0)
(-0.645268 0 0)
(-0.642448 0 0)
(-0.639624 0 0)
(-0.636795 0 0)
(-0.633963 0 0)
(-0.631127 0 0)
(-0.628286 0 0)
(-0.625442 0 0)
(-0.622594 0 0)
(-0.619742 0 0)
(-0.616886 0 0)
(-0.614026 0 0)
(-0.611162 0 0)
(-0.608295 0 0)
(-0.605424 0 0)
(-0.602549 0 0)
(-0.599671 0 0)
(-0.596789 0 0)
(-0.593903 0 0)
(-0.591014 0 0)
(-0.588122 0 0)
(-0.585226 0 0)
(-0.582326 0 0)
(-0.579423 0 0)
(-0.576517 0 0)
(-0.573607 0 0)
(-0.570694 0 0)
(-0.567778 0 0)
(-0.564858 0 0)
(-0.561936 0 0)
(-0.55901 0 0)
(-0.55608 0 0)
(-0.553148 0 0)
(-0.550213 0 0)
(-0.547274 0 0)
(-0.544333 0 0)
(-0.541388 0 0)
(-0.53844 0 0)
(-0.53549 0 0)
(-0.532536 0 0)
(-0.52958 0 0)
(-0.526621 0 0)
(-0.523658 0 0)
(-0.520693 0 0)
(-0.517725 0 0)
(-0.514755 0 0)
(-0.511781 0 0)
(-0.508805 0 0)
(-0.505826 0 0)
(-0.502845 0 0)
(-0.49986 0 0)
(-0.496873 0 0)
(-0.493884 0 0)
(-0.490892 0 0)
(-0.487897 0 0)
(-0.4849 0 0)
(-0.4819 0 0)
(-0.478898 0 0)
(-0.475893 0 0)
(-0.472886 0 0)
(-0.469877 0 0)
(-0.466865 0 0)
(-0.46385 0 0)
(-0.460833 0 0)
(-0.457814 0 0)
(-0.454793 0 0)
(-0.451769 0 0)
(-0.448743 0 0)
(-0.445715 0 0)
(-0.442685 0 0)
(-0.439652 0 0)
(-0.436617 0 0)
(-0.43358 0 0)
(-0.430541 0 0)
(-0.4275 0 0)
(-0.424457 0 0)
(-0.421411 0 0)
(-0.418364 0 0)
(-0.415314 0 0)
(-0.412263 0 0)
(-0.409209 0 0)
(-0.406154 0 0)
(-0.403096 0 0)
(-0.400037 0 0)
(-0.396975 0 0)
(-0.393912 0 0)
(-0.390847 0 0)
(-0.38778 0 0)
(-0.384711 0 0)
(-0.381641 0 0)
(-0.378568 0 0)
(-0.375494 0 0)
(-0.372418 0 0)
(-0.36934 0 0)
(-0.366261 0 0)
(-0.363179 0 0)
(-0.360097 0 0)
(-0.357012 0 0)
(-0.353926 0 0)
(-0.350838 0 0)
(-0.347748 0 0)
(-0.344657 0 0)
(-0.341564 0 0)
(-0.33847 0 0)
(-0.335374 0 0)
(-0.332277 0 0)
(-0.329178 0 0)
(-0.326078 0 0)
(-0.322976 0 0)
(-0.319873 0 0)
(-0.316768 0 0)
(-0.313662 0 0)
(-0.310554 0 0)
(-0.307445 0 0)
(-0.304334 0 0)
(-0.301223 0 0)
(-0.29811 0 0)
(-0.294995 0 0)
(-0.291879 0 0)
(-0.288762 0 0)
(-0.285644 0 0)
(-0.282524 0 0)
(-0.279403 0 0)
(-0.276281 0 0)
(-0.273158 0 0)
(-0.270033 0 0)
(-0.266907 0 0)
(-0.26378 0 0)
(-0.260652 0 0)
(-0.257523 0 0)
(-0.254393 0 0)
(-0.251261 0 0)
(-0.248129 0 0)
(-0.244995 0 0)
(-0.24186 0 0)
(-0.238725 0 0)
(-0.235588 0 0)
(-0.23245 0 0)
(-0.229311 0 0)
(-0.226171 0 0)
(-0.22303 0 0)
(-0.219889 0 0)
(-0.216746 0 0)
(-0.213602 0 0)
(-0.210458 0 0)
(-0.207312 0 0)
(-0.204166 0 0)
(-0.201019 0 0)
(-0.19787 0 0)
(-0.194721 0 0)
(-0.191572 0 0)
(-0.188421 0 0)
(-0.18527 0 0)
(-0.182117 0 0)
(-0.178965 0 0)
(-0.175811 0 0)
(-0.172656 0 0)
(-0.169501 0 0)
(-0.166345 0 0)
(-0.163189 0 0)
(-0.160031 0 0)
(-0.156873 0 0)
(-0.153715 0 0)
(-0.150555 0 0)
(-0.147395 0 0)
(-0.144235 0 0)
(-0.141074 0 0)
(-0.137912 0 0)
(-0.13475 0 0)
(-0.131587 0 0)
(-0.128423 0 0)
(-0.125259 0 0)
(-0.122095 0 0)
(-0.11893 0 0)
(-0.115764 0 0)
(-0.112598 0 0)
(-0.109432 0 0)
(-0.106265 0 0)
(-0.103097 0 0)
(-0.0999296 0 0)
(-0.0967614 0 0)
(-0.0935928 0 0)
(-0.0904238 0 0)
(-0.0872544 0 0)
(-0.0840846 0 0)
(-0.0809145 0 0)
(-0.0777441 0 0)
(-0.0745733 0 0)
(-0.0714023 0 0)
(-0.0682309 0 0)
(-0.0650593 0 0)
(-0.0618873 0 0)
(-0.0587152 0 0)
(-0.0555428 0 0)
(-0.0523701 0 0)
(-0.0491972 0 0)
(-0.0460242 0 0)
(-0.0428509 0 0)
(-0.0396775 0 0)
(-0.0365039 0 0)
(-0.0333302 0 0)
(-0.0301563 0 0)
(-0.0269823 0 0)
(-0.0238081 0 0)
(-0.0206339 0 0)
(-0.0174596 0 0)
(-0.0142852 0 0)
(-0.0111108 0 0)
(-0.00793632 0 0)
(-0.0047618 0 0)
(-0.00158727 0 0)
)
;

boundaryField
{
    left
    {
        type            fixedValue;
        value           uniform (0 0 0);
    }
    right
    {
        type            fixedValue;
        value           uniform (0 0 0);
    }
    frontBackUpDown
    {
        type            empty;
    }
}


// ************************************************************************* //
