/*--------------------------------*- C++ -*----------------------------------*\
| =========                 |                                                 |
| \\      /  F ield         | OpenFOAM: The Open Source CFD Toolbox           |
|  \\    /   O peration     | Version:  2412                                  |
|   \\  /    A nd           | Website:  www.openfoam.com                      |
|    \\/     M anipulation  |                                                 |
\*---------------------------------------------------------------------------*/
FoamFile
{
    version     2.0;
    format      ascii;
    arch        "LSB;label=32;scalar=64";
    class       volScalarField;
    location    "0.17";
    object      epsilon;
}
// * * * * * * * * * * * * * * * * * * * * * * * * * * * * * * * * * * * * * //

dimensions      [0 2 -3 0 0 0 0];

internalField   nonuniform List<scalar> 
12225
(
448.248
622.893
830.552
1004.82
1150.39
1270.2
1368.59
1449.59
1516.31
1571.31
1616.67
1654.03
1684.69
1709.66
1729.7
1745.2
1756.52
1766.52
173.744
302.084
403.101
480.176
539.341
585.692
622.13
650.851
673.561
691.525
705.706
716.854
725.562
732.295
737.457
741.295
744.601
744.423
119.436
232.402
315.512
376.254
421.16
455.027
480.628
499.956
514.529
525.457
533.563
539.476
543.685
546.576
548.48
549.659
550.544
550.202
97.6416
199.979
277.776
334.833
376.773
407.859
430.863
447.788
460.144
469.043
475.312
479.574
482.313
483.909
484.681
484.905
484.917
484.513
83.6528
176.289
251.578
308.55
351.101
382.723
406.066
423.143
435.486
444.245
450.288
454.275
456.713
458.005
458.484
458.439
458.175
457.721
71.992
153.973
226.311
283.825
328.197
361.839
387.038
405.704
419.351
429.152
436.016
440.643
443.58
445.262
446.044
446.233
446.112
445.774
61.3445
131.283
198.626
255.58
301.542
337.589
365.354
386.464
402.313
414.039
422.557
428.595
432.73
435.429
437.071
437.978
438.417
438.49
51.67
108.731
168.489
222.632
268.756
306.563
336.805
360.617
379.131
393.356
404.15
412.226
418.17
422.461
425.496
427.604
429.04
429.895
43.2228
87.6461
137.687
186.326
230.301
268.245
299.988
326.024
347.082
363.927
377.274
387.76
395.934
402.26
407.131
410.868
413.716
415.738
36.17
69.2419
108.633
149.503
188.756
224.546
256.003
282.986
305.747
324.714
340.379
353.229
363.719
372.258
379.198
384.837
389.393
392.895
30.4987
54.139
83.3293
115.315
147.816
179.116
208.07
234.1
257.035
276.954
294.076
308.689
321.101
331.616
340.515
348.04
354.368
359.475
26.3768
43.1978
64.2838
88.2405
113.649
139.258
164.044
187.309
208.658
227.929
245.112
260.304
273.655
285.346
295.561
304.47
312.189
318.622
23.1427
34.747
49.314
66.2701
84.8774
104.389
124.083
143.354
161.763
179.025
194.986
209.588
222.846
234.817
245.586
255.239
263.825
271.186
20.3784
27.6948
36.7528
47.4285
59.4474
72.4865
86.1775
100.148
114.067
127.673
140.767
153.214
164.933
175.883
186.055
195.454
204.061
211.671
18.1501
22.2409
27.1494
32.9149
39.491
46.7979
54.7201
63.1105
71.8117
80.673
89.5592
98.3545
106.965
115.318
123.359
131.044
138.316
144.973
16.4707
18.357
20.5277
23.0289
25.8752
29.0702
32.6059
36.4578
40.5879
44.9505
49.4963
54.175
58.9375
63.7381
68.5347
73.2878
77.9486
82.3845
15.3282
15.8731
16.4961
17.2136
18.0333
18.9615
20.0046
21.1655
22.4439
23.8362
25.3361
26.9352
28.623
30.3856
32.209
34.0795
35.9794
37.8664
14.7508
14.6758
14.6369
14.6353
14.6698
14.7397
14.845
14.9862
15.1632
15.3761
15.6246
15.908
16.2256
16.5777
16.9634
17.3808
17.827
18.2978
14.8977
14.9732
15.0872
15.2433
15.4416
15.6819
15.9646
16.2895
16.6557
17.0617
17.5054
17.9842
18.4949
19.0344
19.5989
20.185
20.7879
21.3939
15.9707
17.2604
18.7262
20.395
22.2731
24.3598
26.6482
29.1227
31.7593
34.5294
37.4019
40.3452
43.3286
46.3235
49.3039
52.247
55.1279
57.8867
18.0495
21.9967
26.6897
32.1476
38.3077
45.0741
52.3231
59.9084
67.6791
75.4948
83.234
90.7956
98.1005
105.09
111.723
117.976
123.827
129.232
21.563
30.6525
41.9204
55.0364
69.495
84.7782
100.376
115.827
130.768
144.938
158.173
170.38
181.526
191.621
200.702
208.827
216.056
222.433
27.2184
45.3001
67.7857
92.9362
119.103
144.997
169.638
192.385
212.912
231.125
247.073
260.891
272.763
282.889
291.469
298.694
304.739
309.763
35.7143
67.676
105.677
144.949
182.514
216.738
246.813
272.565
294.22
312.178
326.9
338.843
348.43
356.039
361.996
366.581
370.033
372.578
47.4077
97.6106
152.028
202.687
246.851
283.883
314.067
338.193
357.198
371.967
383.28
391.794
398.057
402.515
405.53
407.396
408.355
408.642
61.8879
131.751
198.704
254.804
299.832
335.067
362.108
382.555
397.796
408.957
416.934
422.433
426.006
428.085
429.006
429.035
428.386
427.273
78.4669
165.761
239.651
296.703
339.786
371.974
395.785
413.192
425.727
434.561
440.579
444.449
446.68
447.661
447.689
446.994
445.759
444.172
99.5996
200.964
279.478
337.82
380.456
411.806
434.889
451.765
463.981
472.692
478.747
482.776
485.254
486.543
486.921
486.601
485.753
484.545
144.791
258.315
348.614
417.598
468.466
506.749
535.874
558.052
574.955
587.83
597.588
604.914
610.33
614.242
616.967
618.755
619.799
620.298
366.941
498.483
666.586
808.031
923.452
1016.69
1091.72
1152.39
1201.67
1241.84
1274.69
1301.64
1323.81
1342.08
1357.18
1369.67
1379.98
1388.55
1.05477
0.992024
1.43018
1.80231
2.10317
2.36706
2.68554
3.03056
3.40194
3.80994
4.2769
4.86661
5.62661
6.50471
7.49743
8.60833
9.84605
11.2199
12.7379
14.4061
16.2283
18.2067
20.3419
22.634
25.0829
27.6895
30.4566
33.3901
36.5005
39.8049
43.3074
46.9636
50.7663
54.7112
58.7945
63.0126
67.3619
71.8395
76.4421
81.167
86.0113
90.9723
96.0471
101.233
106.527
111.926
117.427
123.026
128.72
134.504
140.375
146.328
152.358
158.46
164.628
170.858
177.142
183.476
189.852
196.265
202.706
209.17
215.649
222.136
228.624
235.105
241.572
248.018
254.435
260.819
267.164
273.47
279.74
285.989
292.247
298.437
304.526
310.516
316.403
322.183
327.849
333.394
338.811
344.095
349.237
354.231
359.071
363.75
368.264
372.606
376.771
380.753
384.549
388.153
391.561
394.769
397.773
400.571
403.158
405.532
407.691
409.631
411.351
412.85
414.125
415.176
416.001
416.601
416.974
417.12
417.041
416.736
416.207
415.454
414.479
413.285
411.872
410.244
408.404
406.354
404.098
401.64
398.984
396.134
393.095
389.873
386.471
382.897
379.156
375.254
371.198
366.994
362.649
358.17
353.565
348.84
344.006
339.067
334.033
328.92
323.713
318.475
313.249
308.572
305.626
302.939
300.203
297.397
294.524
291.586
288.59
285.54
282.442
279.3
276.121
272.908
269.668
266.405
263.124
259.832
256.531
253.227
249.924
246.627
243.339
240.064
236.803
233.559
230.333
227.124
223.928
220.739
217.545
214.323
211.035
207.609
203.883
199.454
193.65
185.781
3.18575
1.74499
1.55607
1.62555
1.81116
2.08571
2.4418
2.86258
3.34948
3.90517
4.53368
5.24006
6.02451
6.87966
7.80012
8.78192
9.82162
10.9159
12.0611
13.254
14.4915
15.7711
17.0913
18.4512
19.8507
21.2908
22.7728
24.2982
25.8685
27.4844
29.1446
30.8463
32.5887
34.3717
36.1951
38.0587
39.9622
41.9054
43.8877
45.9086
47.9676
50.0638
52.1964
54.3646
56.5673
58.8035
61.072
63.3714
65.7005
68.0577
70.4416
72.8504
75.2826
77.7362
80.2094
82.7003
85.2069
87.727
90.2585
92.7993
95.3469
97.8992
100.454
103.008
105.56
108.108
110.648
113.179
115.699
118.207
120.703
123.188
125.665
128.14
130.638
133.128
135.586
138.01
140.395
142.74
145.041
147.298
149.505
151.663
153.766
155.814
157.803
159.732
161.598
163.399
165.132
166.796
168.389
169.91
171.355
172.724
174.015
175.227
176.358
177.407
178.373
179.255
180.052
180.763
181.387
181.924
182.372
182.732
183.004
183.187
183.28
183.284
183.2
183.026
182.764
182.414
181.977
181.452
180.842
180.147
179.368
178.506
177.563
176.539
175.438
174.259
173.005
171.679
170.281
168.814
167.281
165.683
164.024
162.305
160.529
158.698
156.817
154.887
152.91
150.896
148.823
146.748
144.686
142.744
141.096
139.532
137.97
136.39
134.79
133.168
131.528
129.87
128.197
126.511
124.814
123.108
121.396
119.679
117.96
116.241
114.524
112.81
111.102
109.401
107.71
106.029
104.36
102.704
101.062
99.4343
97.8221
96.2245
94.6408
93.069
91.5061
89.9487
88.3883
86.8374
85.4953
85.5347
5.6164
2.71861
2.31402
2.34696
2.54528
2.84247
3.22821
3.69711
4.24451
4.86433
5.54918
6.29119
7.08225
7.91471
8.7826
9.6817
10.6092
11.5634
12.5433
13.5488
14.58
15.6378
16.7232
17.8374
18.9818
20.1575
21.3654
22.606
23.8796
25.1858
26.5239
27.8933
29.2933
30.7234
32.1832
33.6721
35.1895
36.735
38.3079
39.9077
41.5338
43.1855
44.8623
46.5635
48.2884
50.0363
51.8064
53.5979
55.41
57.2417
59.092
60.96
62.8444
64.7443
66.6583
68.5852
70.5237
72.4725
74.43
76.3949
78.3657
80.3408
82.3188
84.2981
86.2773
88.2551
90.2301
92.2013
94.1678
96.1294
98.0859
100.038
101.987
103.933
105.876
107.803
109.707
111.584
113.433
115.249
117.033
118.781
120.491
122.161
123.79
125.375
126.915
128.407
129.851
131.243
132.583
133.869
135.1
136.274
137.389
138.445
139.44
140.374
141.244
142.051
142.793
143.47
144.08
144.624
145.1
145.508
145.848
146.12
146.322
146.456
146.52
146.515
146.441
146.298
146.087
145.807
145.459
145.045
144.563
144.016
143.403
142.727
141.987
141.185
140.322
139.4
138.419
137.381
136.289
135.142
133.944
132.695
131.398
130.054
128.666
127.234
125.763
124.252
122.702
121.13
119.528
117.914
116.303
114.735
113.255
111.814
110.379
108.937
107.485
106.021
104.547
103.064
101.573
100.076
98.5748
97.0706
95.5654
94.0607
92.5581
91.0593
89.5657
88.0789
86.6002
85.1309
83.6724
82.2259
80.7926
79.3734
77.9694
76.5815
75.2106
73.8574
72.523
71.2087
69.9174
68.6553
67.4351
66.3014
65.3778
65.2524
8.09791
3.82847
3.22437
3.19356
3.36528
3.66069
4.05393
4.5327
5.08739
5.70795
6.38364
7.1041
7.86033
8.64539
9.45468
10.2857
11.1377
12.0109
12.9063
13.8253
14.7695
15.7403
16.7392
17.7673
18.8254
19.914
21.0334
22.1835
23.364
24.5743
25.8139
27.0822
28.3784
29.7023
31.0531
32.4306
33.8341
35.2633
36.7178
38.1972
39.701
41.2289
42.7805
44.3553
45.9529
47.5727
49.2142
50.8769
52.5601
54.263
55.9849
57.7251
59.4824
61.2561
63.0451
64.8483
66.6644
68.4923
70.3308
72.1784
74.0338
75.8957
77.7627
79.6332
81.5061
83.3799
85.2534
87.1254
88.9951
90.8614
92.7236
94.581
96.4329
98.2781
100.111
101.925
103.716
105.483
107.221
108.929
110.605
112.247
113.852
115.419
116.945
118.429
119.87
121.264
122.611
123.909
125.156
126.351
127.493
128.579
129.61
130.583
131.498
132.354
133.149
133.883
134.555
135.164
135.711
136.193
136.611
136.965
137.253
137.476
137.634
137.727
137.754
137.715
137.612
137.443
137.21
136.912
136.551
136.127
135.64
135.092
134.482
133.813
133.085
132.299
131.456
130.558
129.606
128.601
127.545
126.439
125.285
124.086
122.841
121.553
120.226
118.855
117.452
116.018
114.553
113.063
111.55
110.023
108.492
106.976
105.492
104.026
102.564
101.099
99.6274
98.1491
96.6646
95.175
93.6815
92.1856
90.689
89.1931
87.6993
86.2093
84.7245
83.2463
81.776
80.3151
78.8647
77.4261
76.0005
74.589
73.1927
71.8126
70.4498
69.1054
67.7803
66.4761
65.1944
63.938
62.7117
61.525
60.3954
59.3671
58.529
58.1502
10.2894
4.93874
4.10945
3.9921
4.12625
4.40103
4.77788
5.2382
5.76917
6.35941
6.9982
7.67599
8.38505
9.11996
9.87756
10.6566
11.4572
12.2804
13.1278
14.0009
14.9012
15.8302
16.7889
17.778
18.7981
19.8493
20.9316
22.0448
23.1886
24.3626
25.5663
26.7992
28.0611
29.3514
30.6699
32.0162
33.3902
34.7915
36.2198
37.6751
39.1569
40.6651
42.1995
43.7597
45.3454
46.9561
48.5916
50.2513
51.9345
53.6408
55.3693
57.1192
58.8897
60.6798
62.4885
64.3146
66.1569
68.0141
69.8848
71.7676
73.6611
75.5637
77.4738
79.39
81.3105
83.2339
85.1585
87.0829
89.0056
90.925
92.8398
94.7485
96.6494
98.5387
100.411
102.263
104.091
105.893
107.665
109.405
111.111
112.782
114.413
116.005
117.553
119.057
120.515
121.924
123.284
124.592
125.846
127.046
128.19
129.276
130.303
131.271
132.177
133.022
133.804
134.522
135.176
135.764
136.288
136.745
137.135
137.46
137.717
137.907
138.029
138.085
138.074
137.996
137.851
137.64
137.363
137.021
136.614
136.144
135.61
135.014
134.356
133.639
132.862
132.027
131.135
130.188
129.187
128.134
127.03
125.877
124.676
123.43
122.139
120.806
119.437
118.031
116.592
115.122
113.624
112.101
110.557
108.996
107.428
105.862
104.306
102.758
101.211
99.6613
98.1081
96.5509
94.9902
93.4273
91.8635
90.3002
88.7389
87.1812
85.6285
84.0823
82.5441
81.0152
79.497
77.9907
76.4976
75.0189
73.5557
72.1091
70.6803
69.2702
67.8801
66.511
65.1644
63.8418
62.5457
61.2794
60.0489
58.8645
57.7446
56.7273
55.8744
55.3118
12.769
5.99429
4.89467
4.68205
4.76803
5.00956
5.35619
5.78408
6.27838
6.82763
7.42215
8.05394
8.71684
9.40673
10.1214
10.8601
11.6232
12.4119
13.2274
14.0711
14.9444
15.8482
16.7834
17.7507
18.7503
19.7825
20.8474
21.9448
23.0746
24.2367
25.4309
26.6569
27.9146
29.204
30.5247
31.8769
33.2603
34.6749
36.1207
37.5976
39.1055
40.6443
42.2138
43.8139
45.4442
47.1046
48.7945
50.5136
52.2613
54.0368
55.8396
57.6686
59.523
61.4016
63.3034
65.2269
67.1708
69.1337
71.1139
73.1098
75.1196
77.1416
79.1739
81.2146
83.2618
85.3134
87.3674
89.422
91.4751
93.5245
95.5684
97.6044
99.6304
101.641
103.631
105.598
107.538
109.449
111.327
113.171
114.977
116.743
118.467
120.147
121.779
123.363
124.896
126.376
127.801
129.17
130.481
131.731
132.921
134.048
135.111
136.109
137.041
137.906
138.703
139.431
140.09
140.678
141.197
141.644
142.02
142.325
142.558
142.719
142.809
142.828
142.775
142.652
142.458
142.194
141.86
141.458
140.988
140.45
139.847
139.178
138.445
137.65
136.793
135.875
134.899
133.866
132.777
131.634
130.44
129.195
127.899
126.561
125.18
123.757
122.297
120.801
119.272
117.712
116.124
114.511
112.877
111.226
109.564
107.897
106.231
104.566
102.901
101.234
99.5644
97.8929
96.2204
94.548
92.8772
91.2097
89.5468
87.8902
86.2414
84.6018
82.973
81.3563
79.7531
78.1647
76.5922
75.037
73.5001
71.9827
70.486
69.011
67.5589
66.131
64.7289
63.3545
62.0104
60.7007
59.4316
58.2138
57.0644
56.0147
55.1066
54.4016
16.0225
7.05908
5.5827
5.245
5.26949
5.46945
5.77981
6.17104
6.62636
7.13438
7.68643
8.27587
8.89782
9.54906
10.2279
10.9339
11.6672
12.4288
13.2198
14.0413
14.8943
15.7797
16.6985
17.6512
18.6382
19.66
20.7167
21.8087
22.9361
24.0991
25.2976
26.532
27.8022
29.1086
30.4511
31.83
33.2454
34.6975
36.1864
37.7121
39.2748
40.8745
42.5111
44.1845
45.8946
47.641
49.4234
51.2413
53.0941
54.9811
56.9014
58.854
60.8378
62.8516
64.894
66.9634
69.0583
71.1767
73.3169
75.4768
77.6543
79.8473
82.0536
84.2706
86.4961
88.7277
90.9628
93.1989
95.4334
97.6638
99.8875
102.102
104.302
106.483
108.641
110.771
112.872
114.939
116.969
118.96
120.909
122.814
124.67
126.477
128.232
129.931
131.574
133.157
134.679
136.139
137.533
138.861
140.122
141.312
142.433
143.481
144.456
145.358
146.184
146.935
147.61
148.208
148.729
149.173
149.539
149.827
150.037
150.17
150.225
150.202
150.103
149.927
149.676
149.349
148.947
148.472
147.925
147.305
146.615
145.855
145.028
144.134
143.175
142.151
141.067
139.923
138.719
137.459
136.147
134.784
133.37
131.911
130.408
128.864
127.28
125.66
124.006
122.322
120.609
118.871
117.112
115.334
113.544
111.746
109.943
108.139
106.332
104.524
102.715
100.906
99.0981
97.2925
95.491
93.6953
91.9069
90.1276
88.3588
86.6022
84.8592
83.1313
81.4199
79.7262
78.0516
76.3973
74.7645
73.1542
71.5678
70.0064
68.4712
66.9637
65.4855
64.0389
62.6267
61.2532
59.9248
58.6517
57.4494
56.3427
55.3593
54.5309
19.0098
7.97733
6.13237
5.66722
5.62704
5.78334
6.05686
6.41252
6.83159
7.30244
7.8171
8.36982
8.95661
9.57489
10.2233
10.9013
11.6093
12.3478
13.1178
13.9203
14.7562
15.6266
16.5323
17.4741
18.4527
19.4688
20.523
21.6159
22.7479
23.9196
25.1315
26.3841
27.6778
29.0132
30.3907
31.8108
33.2738
34.7802
36.3302
37.9243
39.5625
41.2452
42.9723
44.7437
46.5595
48.4192
50.3225
52.2689
54.2577
56.288
58.3588
60.469
62.6171
64.8018
67.0213
69.2737
71.5571
73.8693
76.2081
78.5709
80.9554
83.3587
85.7782
88.211
90.6543
93.105
95.5601
98.0164
100.471
102.921
105.362
107.792
110.204
112.591
114.952
117.281
119.575
121.831
124.045
126.215
128.336
130.406
132.422
134.382
136.282
138.121
139.895
141.602
143.24
144.808
146.303
147.724
149.069
150.337
151.525
152.634
153.662
154.608
155.47
156.25
156.945
157.555
158.08
158.521
158.876
159.145
159.33
159.429
159.444
159.375
159.222
158.986
158.667
158.267
157.786
157.226
156.588
155.872
155.08
154.214
153.276
152.267
151.187
150.039
148.827
147.553
146.218
144.824
143.374
141.871
140.317
138.715
137.067
135.377
133.646
131.878
130.075
128.241
126.379
124.491
122.581
120.653
118.711
116.759
114.8
112.838
110.873
108.907
106.942
104.978
103.017
101.061
99.1119
97.1709
95.2401
93.3211
91.4157
89.5255
87.6519
85.7965
83.9608
82.1461
80.3536
78.5847
76.8407
75.1226
73.4317
71.7693
70.1368
68.5355
66.9675
65.4349
63.9409
62.4899
61.0881
59.745
58.4741
57.2948
56.2247
55.2811
21.5932
8.71978
6.53897
5.9543
5.8518
5.96591
6.2047
6.52799
6.91508
7.35387
7.8366
8.35809
8.91488
9.5048
10.1267
10.7802
11.4656
12.1834
12.9345
13.72
14.5408
15.3981
16.2931
17.2267
18.2001
19.2142
20.27
21.3686
22.5109
23.6979
24.9304
26.2093
27.5357
28.9102
30.3338
31.8072
33.3311
34.9062
36.533
38.2121
39.9439
41.7287
43.5666
45.4576
47.4017
49.3986
51.4477
53.5486
55.7002
57.9017
60.1517
62.4489
64.7916
67.1779
69.6058
72.0731
74.5772
77.1157
79.6856
82.2841
84.9082
87.5545
90.2199
92.9009
95.594
98.2957
101.002
103.71
106.416
109.115
111.804
114.478
117.128
119.75
122.339
124.892
127.404
129.872
132.291
134.659
136.972
139.227
141.42
143.549
145.61
147.601
149.519
151.361
153.126
154.812
156.416
157.937
159.373
160.722
161.984
163.157
164.239
165.23
166.13
166.936
167.65
168.27
168.797
169.23
169.57
169.815
169.968
170.027
169.994
169.869
169.653
169.346
168.95
168.465
167.894
167.236
166.494
165.669
164.76
163.774
162.71
161.57
160.357
159.072
157.719
156.299
154.815
153.269
151.665
150.005
148.292
146.528
144.717
142.862
140.965
139.03
137.06
135.058
133.027
130.971
128.892
126.795
124.684
122.561
120.431
118.296
116.16
114.023
111.888
109.756
107.63
105.511
103.401
101.302
99.2166
97.1458
95.0915
93.0556
91.0396
89.045
87.0735
85.1263
83.2049
81.3105
79.4444
77.6079
75.8021
74.0286
72.2886
70.5837
68.916
67.2878
65.7023
64.1639
62.6786
61.255
59.9044
58.6419
57.4782
56.4233
23.7096
9.28609
6.81399
6.12265
5.96291
6.03788
6.24488
6.53931
6.89856
7.30986
7.76542
8.26029
8.79131
9.35658
9.95517
10.5868
11.2519
11.9509
12.685
13.4553
14.263
15.1096
15.9964
16.9248
17.8964
18.9126
19.9749
21.0847
22.2435
23.4527
24.7137
26.0279
27.3966
28.821
30.3025
31.8421
33.4408
35.0998
36.8197
38.6013
40.4451
42.3517
44.3212
46.3537
48.449
50.6068
52.8266
55.1074
57.4484
59.8481
62.305
64.8175
67.3833
70.0003
72.6658
75.3773
78.1316
80.9256
83.7559
86.619
89.5112
92.4288
95.3678
98.3242
101.294
104.273
107.257
110.241
113.222
116.195
119.156
122.093
125.001
127.875
130.711
133.504
136.249
138.943
141.581
144.159
146.675
149.124
151.502
153.807
156.036
158.184
160.251
162.232
164.127
165.932
167.646
169.267
170.792
172.222
173.554
174.788
175.921
176.954
177.884
178.713
179.439
180.063
180.583
181.001
181.316
181.529
181.64
181.649
181.557
181.366
181.076
180.687
180.201
179.619
178.944
178.176
177.318
176.37
175.335
174.215
173.013
171.73
170.369
168.932
167.423
165.843
164.195
162.483
160.71
158.878
156.99
155.05
153.061
151.026
148.948
146.832
144.679
142.495
140.281
138.041
135.78
133.5
131.205
128.899
126.586
124.269
121.95
119.632
117.318
115.009
112.707
110.416
108.136
105.871
103.621
101.39
99.1778
96.9876
94.8208
92.6789
90.5634
88.4759
86.4176
84.3901
82.3944
80.4321
78.5043
76.6124
74.758
72.9426
71.1684
69.4377
67.7539
66.1211
64.5449
63.0331
61.595
60.2422
58.9806
57.817
25.331
9.68624
6.97477
6.19259
5.98221
6.02177
6.19999
6.46863
6.80344
7.19094
7.62314
8.09511
8.60388
9.14774
9.72593
10.3384
10.9856
11.6684
12.3881
13.146
13.9437
14.7829
15.6656
16.5935
17.5687
18.5931
19.6687
20.7974
21.9813
23.2224
24.5226
25.8836
27.3075
28.7958
30.3502
31.9723
33.6633
35.4247
37.2574
39.1624
41.1403
43.1917
45.3168
47.5156
49.788
52.1334
54.5509
57.0396
59.598
62.2246
64.9172
67.6738
70.4916
73.368
76.2998
79.2836
82.3158
85.3926
88.5098
91.6633
94.8487
98.0616
101.297
104.552
107.819
111.096
114.376
117.656
120.93
124.193
127.438
130.652
133.83
136.967
140.057
143.097
146.082
149.006
151.866
154.658
157.377
160.021
162.584
165.065
167.458
169.761
171.972
174.087
176.105
178.024
179.84
181.553
183.161
184.663
186.056
187.341
188.516
189.58
190.532
191.371
192.098
192.713
193.216
193.607
193.886
194.053
194.11
194.056
193.893
193.622
193.244
192.761
192.173
191.482
190.691
189.8
188.813
187.731
186.555
185.289
183.936
182.497
180.975
179.373
177.694
175.941
174.118
172.226
170.27
168.254
166.179
164.05
161.871
159.644
157.374
155.064
152.717
150.338
147.93
145.497
143.041
140.568
138.081
135.583
133.078
130.57
128.062
125.556
123.055
120.562
118.079
115.609
113.153
110.715
108.296
105.897
103.523
101.173
98.8496
96.555
94.2905
92.0575
89.8575
87.6919
85.562
83.4691
81.4146
79.3999
77.4265
75.4962
73.611
71.7734
69.9865
68.2544
66.5824
64.9771
63.4461
61.9984
60.6367
59.3662
26.4511
9.9341
7.03973
6.18446
5.93105
5.93932
6.0917
6.33723
6.65039
7.0171
7.42912
7.8815
8.37137
8.89717
9.45837
10.0551
10.6882
11.3587
12.0683
12.8187
13.6119
14.4501
15.3357
16.2711
17.2587
18.3013
19.4013
20.5613
21.7839
23.0717
24.427
25.8524
27.3501
28.9223
30.5711
32.2983
34.1057
35.9947
37.9665
40.0223
42.1627
44.3883
46.6991
49.0951
51.5757
54.1402
56.7874
59.5158
62.3235
65.2084
68.1679
71.1991
74.2989
77.4638
80.6899
83.9732
87.3093
90.6936
94.1211
97.5868
101.086
104.613
108.163
111.731
115.311
118.899
122.488
126.074
129.65
133.212
136.743
140.234
143.682
147.08
150.424
153.707
156.926
160.075
163.15
166.146
169.06
171.888
174.626
177.27
179.816
182.26
184.602
186.837
188.964
190.981
192.885
194.675
196.349
197.907
199.346
200.666
201.867
202.946
203.902
204.736
205.448
206.038
206.507
206.855
207.081
207.188
207.175
207.044
206.795
206.43
205.951
205.359
204.655
203.842
202.921
201.895
200.765
199.535
198.206
196.781
195.264
193.656
191.961
190.182
188.323
186.386
184.374
182.293
180.144
177.932
175.66
173.332
170.953
168.525
166.053
163.541
160.992
158.41
155.8
153.165
150.509
147.835
145.148
142.452
139.751
137.047
134.344
131.646
128.955
126.274
123.607
120.954
118.319
115.705
113.113
110.545
108.004
105.492
103.01
100.56
98.1441
95.7633
93.4192
91.1132
88.8467
86.6211
84.4377
82.2979
80.2033
78.1557
76.1572
74.2101
72.3176
70.4834
68.7124
67.0103
65.3833
63.8381
62.3755
61.0002
27.0752
10.0441
7.02603
6.11674
5.82875
5.81038
5.94007
6.1652
6.45944
6.80831
7.20346
7.63995
8.115
8.62729
9.17651
9.76314
10.3883
11.0535
11.7609
12.5125
13.3112
14.1595
15.0606
16.0173
17.0329
18.1107
19.2537
20.4653
21.7486
23.1067
24.5426
26.0593
27.6596
29.346
31.121
32.9866
34.9448
36.9972
39.145
41.3893
43.7306
46.1691
48.7048
51.3371
54.0651
56.8874
59.8023
62.8077
65.9011
69.0794
72.3393
75.6774
79.0894
82.5712
86.1182
89.7256
93.3882
97.1004
100.856
104.65
108.476
112.328
116.201
120.089
123.987
127.888
131.787
135.679
139.557
143.406
147.212
150.971
154.675
158.32
161.9
165.41
168.844
172.198
175.466
178.646
181.733
184.722
187.613
190.397
193.071
195.633
198.08
200.411
202.622
204.713
206.68
208.523
210.24
211.829
213.29
214.622
215.824
216.895
217.835
218.643
219.319
219.865
220.281
220.566
220.722
220.749
220.649
220.423
220.072
219.597
219.001
218.284
217.449
216.498
215.434
214.257
212.972
211.581
210.086
208.49
206.797
205.009
203.13
201.163
199.113
196.982
194.773
192.492
190.142
187.727
185.25
182.716
180.13
177.494
174.814
172.094
169.337
166.548
163.73
160.889
158.028
155.15
152.261
149.364
146.463
143.561
140.663
137.771
134.89
132.02
129.167
126.332
123.517
120.727
117.962
115.225
112.518
109.843
107.203
104.598
102.03
99.5019
97.0138
94.5677
92.1648
89.8065
87.4942
85.2293
83.0135
80.8484
78.7361
76.679
74.6801
72.7429
70.8716
69.0713
67.3469
65.7036
64.1407
62.6631
27.2129
10.0297
6.94873
6.00551
5.69233
5.65276
5.7637
5.9719
6.25079
6.58586
6.96883
7.39492
7.86159
8.3678
8.91362
9.49995
10.1284
10.801
11.5204
12.2895
13.1116
13.9901
14.9286
15.9311
17.0014
18.1434
19.3612
20.6583
22.0384
23.5053
25.0625
26.7134
28.461
30.3082
32.2575
34.3111
36.4708
38.7381
41.114
43.599
46.1934
48.8967
51.7083
54.6269
57.6508
60.7778
64.0053
67.3303
70.7492
74.2582
77.853
81.529
85.2812
89.1045
92.9935
96.9427
100.947
104.999
109.091
113.217
117.37
121.546
125.737
129.938
134.143
138.346
142.541
146.722
150.877
154.985
159.039
163.034
166.964
170.823
174.606
178.307
181.921
185.443
188.869
192.195
195.416
198.529
201.53
204.415
207.18
209.823
212.341
214.732
216.994
219.124
221.122
222.985
224.713
226.303
227.756
229.07
230.245
231.281
232.176
232.932
233.548
234.024
234.363
234.563
234.626
234.553
234.345
234.004
233.531
232.928
232.196
231.338
230.356
229.252
228.029
226.688
225.234
223.669
221.995
220.217
218.337
216.359
214.286
212.123
209.873
207.54
205.128
202.64
200.083
197.458
194.772
192.027
189.23
186.383
183.492
180.56
177.593
174.595
171.569
168.52
165.453
162.372
159.281
156.183
153.083
149.986
146.893
143.81
140.739
137.684
134.647
131.632
128.641
125.677
122.742
119.839
116.969
114.135
111.338
108.581
105.865
103.192
100.563
97.9789
95.4421
92.9536
90.5147
88.1269
85.7917
83.5109
81.2865
79.1208
77.0166
74.9771
73.0062
71.108
69.2868
67.5463
65.8851
64.3084
26.8773
9.90289
6.8208
5.86473
5.53696
5.48311
5.58095
5.77771
6.04727
6.37552
6.75458
7.18015
7.65015
8.16399
8.72226
9.32651
9.97898
10.6825
11.4405
12.2565
13.1347
14.0794
15.095
16.1862
17.3577
18.6144
19.9616
21.4016
22.939
24.5779
26.3223
28.1755
30.1407
32.2206
34.4172
36.7325
39.1677
41.7234
44.4
47.1972
50.114
53.1492
56.3008
59.5666
62.9435
66.4282
70.017
73.7055
77.4892
81.3629
85.3213
89.3589
93.4696
97.6473
101.886
106.179
110.519
114.901
119.316
123.757
128.219
132.694
137.177
141.662
146.142
150.612
155.067
159.495
163.87
168.186
172.437
176.616
180.717
184.736
188.666
192.503
196.242
199.878
203.406
206.823
210.125
213.308
216.369
219.304
222.11
224.784
227.324
229.728
231.994
234.12
236.104
237.945
239.643
241.195
242.601
243.861
244.974
245.94
246.758
247.43
247.954
248.333
248.566
248.654
248.599
248.401
248.063
247.585
246.969
246.217
245.332
244.315
243.169
241.895
240.498
238.98
237.344
235.593
233.73
231.758
229.682
227.506
225.232
222.865
220.409
217.869
215.248
212.55
209.782
206.946
204.047
201.091
198.081
195.023
191.921
188.78
185.604
182.397
179.166
175.913
172.643
169.361
166.071
162.777
159.484
156.194
152.913
149.644
146.39
143.154
139.94
136.751
133.589
130.457
127.358
124.294
121.267
118.28
115.333
112.43
109.571
106.758
103.993
101.276
98.6107
95.9967
93.4358
90.9294
88.4791
86.0865
83.7535
81.4824
79.2758
77.1367
75.0685
73.0747
71.1587
69.3236
67.5673
65.8957
26.0426
9.6905
6.65265
5.70384
5.3734
5.31459
5.40827
5.60343
5.87514
6.21033
6.60207
7.04706
7.54445
8.09382
8.69677
9.35587
10.0744
10.8562
11.7057
12.6274
13.6266
14.7082
15.8777
17.1404
18.5015
19.966
21.5389
23.2242
25.026
26.948
28.9935
31.1651
33.4652
35.8953
38.4564
41.1489
43.9727
46.9268
50.01
53.2202
56.555
60.0113
63.5855
67.2736
71.0711
74.9733
78.975
83.0704
87.2538
91.5191
95.86
100.27
104.742
109.27
113.846
118.464
123.117
127.798
132.5
137.216
141.94
146.666
151.387
156.099
160.797
165.475
170.118
174.701
179.216
183.659
188.023
192.303
196.493
200.589
204.584
208.476
212.258
215.927
219.48
222.911
226.218
229.397
232.445
235.36
238.137
240.776
243.273
245.627
247.835
249.896
251.81
253.573
255.186
256.648
257.958
259.115
260.12
260.971
261.67
262.216
262.61
262.852
262.944
262.886
262.68
262.326
261.826
261.183
260.397
259.471
258.407
257.208
255.876
254.413
252.823
251.109
249.274
247.321
245.254
243.076
240.792
238.405
235.92
233.34
230.67
227.915
225.078
222.166
219.181
216.13
213.017
209.846
206.623
203.353
200.04
196.689
193.305
189.893
186.457
183.002
179.533
176.054
172.57
169.084
165.601
162.126
158.661
155.212
151.78
148.371
144.986
141.629
138.303
135.011
131.754
128.537
125.359
122.225
119.135
116.091
113.095
110.149
107.254
104.412
101.623
98.8891
96.2116
93.5919
91.0313
88.5316
86.0944
83.7221
81.4169
79.1816
77.0193
74.933
72.9253
70.9989
69.1514
67.3893
24.9167
9.45903
6.49955
5.56664
5.24408
5.19365
5.29971
5.51349
5.8119
6.18352
6.62302
7.12858
7.70062
8.34096
9.05267
9.83976
10.7069
11.6594
12.7027
13.8426
15.0849
16.4353
17.8993
19.4823
21.189
23.0238
24.9904
27.092
29.3307
31.7085
34.2264
36.8848
39.6834
42.6211
45.6963
48.9068
52.2496
55.7215
59.3186
63.0366
66.8708
70.8161
74.8672
79.0185
83.2641
87.5979
92.0137
96.5051
101.066
105.689
110.368
115.096
119.866
124.673
129.508
134.366
139.241
144.125
149.013
153.9
158.778
163.644
168.493
173.32
178.122
182.876
187.56
192.168
196.697
201.14
205.494
209.753
213.912
217.967
221.914
225.749
229.467
233.065
236.54
239.887
243.104
246.188
249.135
251.944
254.611
257.135
259.514
261.745
263.826
265.758
267.537
269.163
270.635
271.952
273.114
274.12
274.97
275.664
276.202
276.584
276.811
276.884
276.803
276.569
276.184
275.649
274.965
274.135
273.16
272.043
270.785
269.389
267.859
266.196
264.404
262.487
260.446
258.287
256.013
253.627
251.133
248.537
245.841
243.052
240.172
237.207
234.161
231.04
227.847
224.589
221.27
217.895
214.47
210.998
207.486
203.938
200.36
196.755
193.129
189.487
185.833
182.171
178.508
174.845
171.189
167.543
163.91
160.296
156.703
153.135
149.594
146.085
142.61
139.172
135.773
132.416
129.102
125.834
122.615
119.444
116.325
113.258
110.245
107.288
104.388
101.545
98.7613
96.0382
93.377
90.7792
88.2465
85.781
83.3849
81.0606
78.8108
76.6382
74.5452
72.5336
70.6013
68.7556
23.5892
9.17907
6.35164
5.4615
5.16949
5.15261
5.30121
5.57029
5.93987
6.40143
6.9525
7.59406
8.32927
9.16266
10.0997
11.1465
12.3094
13.5947
15.0084
16.5563
18.2433
20.0738
22.0513
24.1783
26.4565
28.8865
31.468
34.1999
37.0802
40.1061
43.2743
46.5809
50.0214
53.5909
57.2844
61.0963
65.0209
69.0525
73.185
77.4126
81.7291
86.1285
90.6047
95.1517
99.7634
104.434
109.157
113.927
118.738
123.584
128.46
133.359
138.276
143.206
148.143
153.082
158.017
162.944
167.859
172.756
177.633
182.485
187.308
192.102
196.833
201.488
206.062
210.553
214.955
219.265
223.479
227.592
231.6
235.5
239.288
242.96
246.513
249.944
253.248
256.424
259.468
262.377
265.149
267.781
270.272
272.618
274.819
276.871
278.774
280.526