/*--------------------------------*- C++ -*----------------------------------*\
| =========                 |                                                 |
| \\      /  F ield         | OpenFOAM: The Open Source CFD Toolbox           |
|  \\    /   O peration     | Version:  2412                                  |
|   \\  /    A nd           | Website:  www.openfoam.com                      |
|    \\/     M anipulation  |                                                 |
\*---------------------------------------------------------------------------*/
FoamFile
{
    version     2.0;
    format      ascii;
    arch        "LSB;label=32;scalar=64";
    class       volScalarField;
    location    "0.17";
    object      k;
}
// * * * * * * * * * * * * * * * * * * * * * * * * * * * * * * * * * * * * * //

dimensions      [0 2 -2 0 0 0 0];

internalField   nonuniform List<scalar> 
12225
(
0.316793
0.394493
0.477905
0.542612
0.593827
0.634372
0.666724
0.692778
0.713877
0.731036
0.745037
0.756471
0.765792
0.773339
0.77937
0.784019
0.787408
0.790392
0.569139
0.788914
0.952581
1.06799
1.1512
1.2127
1.25817
1.2917
1.3163
1.33411
1.3467
1.35525
1.36066
1.36362
1.36472
1.36427
1.36349
1.36139
0.670061
0.972154
1.18323
1.33202
1.43945
1.51861
1.57693
1.61968
1.65077
1.67302
1.6885
1.69879
1.70508
1.7083
1.70922
1.70842
1.70693
1.7049
0.722108
1.07674
1.32651
1.50447
1.63403
1.72971
1.80042
1.85243
1.89038
1.91766
1.93679
1.94967
1.95776
1.9622
1.96393
1.96374
1.96263
1.96116
0.742771
1.1292
1.41224
1.61818
1.77023
1.88337
1.96763
2.03016
2.07625
2.1098
2.13375
2.15034
2.16127
2.16792
2.17138
2.17261
2.17263
2.17211
0.739914
1.13776
1.44637
1.6782
1.85304
1.98505
2.08467
2.15964
2.21577
2.25742
2.2879
2.30977
2.325
2.33517
2.34156
2.34525
2.34727
2.34826
0.71962
1.1088
1.43133
1.68402
1.88029
2.03177
2.14828
2.23766
2.30595
2.35781
2.39687
2.42595
2.44728
2.46262
2.47341
2.48088
2.48602
2.48941
0.687642
1.05045
1.37183
1.63647
1.84973
2.01924
2.15293
2.25792
2.34009
2.40413
2.45382
2.49214
2.52151
2.54386
2.56078
2.57355
2.58318
2.59014
0.648986
0.972379
1.27662
1.5408
1.76293
1.94592
2.09472
2.21487
2.31146
2.38886
2.45069
2.49996
2.53914
2.57027
2.595
2.61467
2.63028
2.64217
0.607484
0.884088
1.15747
1.40739
1.62724
1.81572
1.97447
2.10675
2.21628
2.3066
2.38088
2.44188
2.49197
2.53313
2.56702
2.59497
2.61793
2.63607
0.565819
0.793321
1.02684
1.2503
1.45566
1.63915
1.79965
1.93806
2.05634
2.15684
2.24193
2.31385
2.37462
2.42602
2.46957
2.50651
2.53769
2.56306
0.528747
0.712095
0.905183
1.09647
1.27868
1.4475
1.60045
1.73675
1.85687
1.96193
2.05335
2.1327
2.20147
2.2611
2.31283
2.35773
2.39645
2.42866
0.494653
0.637272
0.790586
0.946993
1.10077
1.24804
1.38602
1.51305
1.62848
1.73242
1.82539
1.90819
1.98174
2.047
2.10489
2.15616
2.20128
2.23956
0.460676
0.562146
0.673148
0.789683
0.90791
1.02495
1.13848
1.2467
1.34845
1.4431
1.53045
1.61059
1.68379
1.75047
1.81108
1.86603
1.91547
1.9584
0.429346
0.492749
0.562801
0.638296
0.717359
0.798327
0.879705
0.960139
1.03853
1.11407
1.1862
1.25458
1.31903
1.3795
1.43602
1.48863
1.5372
1.58052
0.403168
0.435385
0.470978
0.510056
0.552194
0.596862
0.643484
0.691418
0.740017
0.788702
0.836978
0.884436
0.930751
0.975667
1.01899
1.06055
1.10006
1.13645
0.384083
0.394609
0.406483
0.419894
0.434848
0.451303
0.469198
0.488422
0.508815
0.530193
0.552362
0.575127
0.598294
0.621652
0.64502
0.668237
0.691096
0.71306
0.374047
0.373709
0.374089
0.375206
0.377037
0.37956
0.382762
0.38663
0.391141
0.396266
0.40197
0.408214
0.414955
0.422167
0.429807
0.437819
0.446134
0.454643
0.376606
0.378924
0.381989
0.38585
0.390483
0.39585
0.401918
0.408641
0.415962
0.423812
0.432122
0.440822
0.449839
0.459107
0.46856
0.478136
0.487762
0.497218
0.394947
0.417779
0.442955
0.470553
0.500293
0.531811
0.564719
0.598585
0.63296
0.667427
0.701619
0.735227
0.767998
0.799733
0.830285
0.859545
0.887389
0.913414
0.42777
0.489065
0.556227
0.628009
0.702573
0.778277
0.853688
0.927548
0.998847
1.06686
1.13111
1.19132
1.24739
1.29932
1.34721
1.39121
1.43148
1.46805
0.475739
0.594971
0.723606
0.855973
0.987187
1.11392
1.2338
1.34521
1.44732
1.53993
1.62324
1.69772
1.76396
1.82266
1.87451
1.92021
1.96037
1.99551
0.536845
0.728693
0.928622
1.12372
1.30641
1.47302
1.62181
1.75254
1.86609
1.96391
2.04767
2.11906
2.17967
2.23097
2.27426
2.31066
2.34117
2.36663
0.60414
0.873966
1.14016
1.38239
1.59447
1.77604
1.92882
2.05583
2.16062
2.24658
2.31676
2.37379
2.41989
2.45694
2.4865
2.50984
2.52804
2.54205
0.668314
1.00766
1.31642
1.57532
1.78709
1.95801
2.09447
2.20265
2.28799
2.35496
2.40718
2.44754
2.47838
2.50154
2.51854
2.53056
2.53858
2.54347
0.717303
1.09919
1.41419
1.65889
1.84811
1.99398
2.10591
2.19144
2.25649
2.30556
2.34215
2.36895
2.38805
2.40108
2.40933
2.4138
2.41531
2.41458
0.735718
1.11862
1.40734
1.61983
1.77772
1.89573
1.98395
2.04966
2.09826
2.13376
2.15921
2.17688
2.18853
2.19548
2.19879
2.19926
2.19754
2.19422
0.708199
1.04716
1.29075
1.46557
1.59175
1.68428
1.75245
1.80244
1.83877
1.86479
1.88295
1.89508
1.90257
1.90647
1.9076
1.9066
1.90396
1.90015
0.616921
0.862574
1.0489
1.18265
1.27674
1.34491
1.39483
1.43126
1.45767
1.47656
1.48974
1.49855
1.504
1.50684
1.50769
1.50698
1.50509
1.5024
0.33327
0.408789
0.496176
0.564093
0.616607
0.657442
0.689403
0.714712
0.734947
0.751236
0.764425
0.775161
0.783937
0.791137
0.797058
0.801941
0.80596
0.809293
0.00784092
0.0124816
0.0159255
0.0185761
0.0205848
0.0222656
0.0242136
0.026238
0.0283318
0.0305448
0.0329814
0.0359333
0.0395702
0.0435734
0.0478865
0.0524913
0.057392
0.0625947
0.0680997
0.0739
0.0799828
0.0863311
0.0929264
0.0997504
0.106787
0.114026
0.121462
0.129098
0.136949
0.145045
0.15338
0.16184
0.170403
0.179056
0.18779
0.196596
0.205466
0.214393
0.223371
0.232395
0.241459
0.250559
0.25969
0.268849
0.278031
0.287231
0.296446
0.30567
0.314898
0.324127
0.33335
0.342562
0.351757
0.36093
0.370074
0.379183
0.388251
0.397272
0.406238
0.415144
0.423982
0.432745
0.441428
0.450022
0.458522
0.46692
0.475211
0.483389
0.491447
0.499382
0.507192
0.514879
0.52245
0.529926
0.537347
0.54462
0.551709
0.558619
0.565351
0.571902
0.578268
0.584444
0.590427
0.596211
0.601792
0.607165
0.612327
0.617273
0.622001
0.626506
0.630786
0.634837
0.638658
0.642244
0.645596
0.648709
0.651583
0.654215
0.656605
0.658751
0.660652
0.662307
0.663716
0.664878
0.665793
0.666461
0.666882
0.667055
0.666983
0.666665
0.666102
0.665296
0.664247
0.662957
0.661427
0.659661
0.657659
0.655424
0.652959
0.650266
0.64735
0.644212
0.640856
0.637287
0.633509
0.629525
0.62534
0.62096
0.616389
0.611632
0.606696
0.601585
0.596306
0.590865
0.585269
0.579522
0.573635
0.567612
0.561462
0.5552
0.548809
0.542358
0.535895
0.530031
0.526137
0.522534
0.518867
0.515113
0.511272
0.507348
0.503348
0.499275
0.495137
0.490937
0.486683
0.482379
0.478032
0.473647
0.469229
0.464784
0.460318
0.455836
0.451343
0.446844
0.442343
0.437844
0.433351
0.428866
0.424389
0.419919
0.415453
0.410983
0.406491
0.401953
0.397317
0.392492
0.387271
0.381134
0.373202
0.36253
0.0163852
0.0260158
0.0344482
0.0413123
0.0475689
0.0537128
0.0597069
0.0658016
0.0722569
0.0791614
0.0865101
0.0942643
0.102368
0.110755
0.119395
0.128285
0.137433
0.146853
0.156561
0.166569
0.176892
0.187539
0.198519
0.209838
0.221501
0.23351
0.245863
0.258554
0.271576
0.284915
0.298554
0.312471
0.326653
0.341086
0.355757
0.370651
0.385757
0.401064
0.416558
0.432231
0.448072
0.464072
0.480222
0.496514
0.512938
0.529488
0.546154
0.562929
0.579802
0.596766
0.61381
0.630926
0.648103
0.665329
0.682595
0.699889
0.717199
0.734513
0.751819
0.769103
0.786355
0.803559
0.820704
0.837776
0.854762
0.87165
0.888425
0.905077
0.921591
0.937956
0.954158
0.970186
0.986028
1.00167
1.01698
1.03197
1.04669
1.06116
1.07536
1.08929
1.10294
1.11629
1.12934
1.14207
1.15448
1.16656
1.17829
1.18967
1.20069
1.21134
1.22161
1.23149
1.24098
1.25008
1.25876
1.26704
1.27489
1.28233
1.28933
1.2959
1.30204
1.30773
1.31299
1.31779
1.32214
1.32604
1.32948
1.33247
1.33499
1.33706
1.33867
1.33981
1.34049
1.34071
1.34047
1.33976
1.3386
1.33698
1.33491
1.33238
1.32941
1.32599
1.32213
1.31783
1.3131
1.30795
1.30237
1.29639
1.29
1.28321
1.27602
1.26846
1.26053
1.25224
1.24359
1.2346
1.22528
1.21564
1.20569
1.19547
1.18489
1.17414
1.16323
1.15226
1.14144
1.13054
1.11946
1.10821
1.09679
1.08522
1.0735
1.06166
1.0497
1.03764
1.0255
1.01328
1.001
0.988664
0.976295
0.963901
0.951495
0.939087
0.926688
0.91431
0.901962
0.889654
0.877393
0.865188
0.853044
0.840966
0.828954
0.817006
0.805115
0.793266
0.781433
0.769575
0.757592
0.745366
0.731393
0.716135
0.0239136
0.0413869
0.0539097
0.0637014
0.0723336
0.0803459
0.0883046
0.0965277
0.105185
0.114323
0.123912
0.133886
0.144181
0.154756
0.165598
0.17672
0.188153
0.199934
0.212103
0.224695
0.237742
0.251266
0.26528
0.279793
0.2948
0.310294
0.326258
0.342671
0.359507
0.376739
0.39434
0.412281
0.430538
0.449088
0.46791
0.486985
0.506294
0.525823
0.545558
0.565485
0.585594
0.605874
0.626317
0.646912
0.667651
0.688526
0.709528
0.730647
0.751874
0.7732
0.794615
0.816107
0.837664
0.859276
0.880929
0.902611
0.924307
0.946003
0.967686
0.98934
1.01095
1.0325
1.05397
1.07536
1.09663
1.11779
1.1388
1.15967
1.18036
1.20087
1.22119
1.2413
1.26118
1.28082
1.30013
1.31913
1.33781
1.35617
1.3742
1.39188
1.40921
1.42617
1.44274
1.45891
1.47467
1.49
1.50489
1.51934
1.53332
1.54684
1.55987
1.57241
1.58444
1.59597
1.60698
1.61746
1.62741
1.63682
1.64568
1.65399
1.66174
1.66892
1.67555
1.68159
1.68707
1.69196
1.69628
1.70001
1.70315
1.70571
1.70768
1.70906
1.70985
1.71006
1.70968
1.70871
1.70715
1.70502
1.70231
1.69902
1.69516
1.69073
1.68575
1.68021
1.67412
1.66749
1.66033
1.65265
1.64445
1.63574
1.62654
1.61686
1.6067
1.59609
1.58503
1.57352
1.56161
1.54929
1.53657
1.52354
1.51016
1.4965
1.48259
1.4685
1.45433
1.44
1.42546
1.41071
1.39574
1.38059
1.36527
1.34979
1.33418
1.31844
1.30259
1.28666
1.27066
1.25459
1.23849
1.22236
1.20622
1.19009
1.17397
1.15788
1.14184
1.12586
1.10995
1.09412
1.07837
1.06272
1.04718
1.03175
1.01642
1.00121
0.986097
0.971098
0.956198
0.941439
0.926374
0.910786
0.0305214
0.05671
0.0729034
0.0848264
0.0949173
0.104301
0.113563
0.123041
0.132914
0.143247
0.154031
0.165228
0.176798
0.188721
0.201004
0.213671
0.226763
0.240324
0.254394
0.269007
0.28419
0.299954
0.316304
0.333233
0.350726
0.36876
0.387311
0.406347
0.425837
0.445749
0.466053
0.486721
0.507726
0.529046
0.550659
0.572547
0.594693
0.617084
0.639705
0.662546
0.685597
0.708847
0.732288
0.755911
0.779707
0.803669
0.827785
0.852048
0.876446
0.90097
0.925607
0.950346
0.975173
1.00008
1.02504
1.05005
1.07508
1.10013
1.12518
1.1502
1.17518
1.20011
1.22496
1.24971
1.27435
1.29886
1.32321
1.3474
1.3714
1.3952
1.41878
1.44213
1.46523
1.48801
1.51045
1.53255
1.55428
1.57565
1.59662
1.6172
1.63735
1.65707
1.67633
1.69512
1.71343
1.73124
1.74853
1.76529
1.78151
1.79717
1.81227
1.82678
1.84071
1.85404
1.86675
1.87885
1.89032
1.90115
1.91135
1.92089
1.92978
1.93801
1.94557
1.95246
1.95868
1.96422
1.96908
1.97325
1.97675
1.97955
1.98167
1.9831
1.98385
1.9839
1.98328
1.98197
1.97998
1.97731
1.97397
1.96996
1.96529
1.95996
1.95397
1.94735
1.94009
1.9322
1.9237
1.91458
1.90488
1.89459
1.88372
1.8723
1.86033
1.84783
1.83482
1.82129
1.8073
1.79289
1.77804
1.7628
1.74718
1.73121
1.71495
1.69843
1.68172
1.66479
1.64762
1.63022
1.61258
1.59474
1.5767
1.55849
1.54013
1.52163
1.50301
1.4843
1.46552
1.44667
1.42778
1.40887
1.38996
1.37106
1.35218
1.33335
1.31458
1.29588
1.27727
1.25877
1.24038
1.22212
1.20399
1.18602
1.16821
1.15058
1.13315
1.11596
1.09907
1.08262
1.06655
1.05084
0.0358066
0.0706629
0.0898194
0.103497
0.114947
0.125435
0.135625
0.145906
0.156501
0.167517
0.178995
0.190935
0.203333
0.21619
0.229522
0.243358
0.257734
0.272685
0.288242
0.304427
0.321253
0.33872
0.356823
0.375546
0.394866
0.414759
0.435194
0.456141
0.47757
0.499449
0.521752
0.544453
0.567527
0.590953
0.614713
0.638789
0.663168
0.687835
0.712779
0.737988
0.763454
0.789166
0.815115
0.841293
0.86769
0.894296
0.921101
0.948095
0.975266
1.0026
1.03009
1.05771
1.08546
1.11331
1.14126
1.16927
1.19734
1.22544
1.25355
1.28166
1.30974
1.33777
1.36572
1.39358
1.42133
1.44894
1.47638
1.50365
1.53071
1.55755
1.58414
1.61047
1.63652
1.6622
1.68751
1.71243
1.73695
1.76104
1.78469
1.80788
1.83059
1.85281
1.8745
1.89565
1.91625
1.93628
1.95572
1.97456
1.99277
2.01035
2.02728
2.04355
2.05915
2.07406
2.08828
2.10179
2.11459
2.12666
2.13801
2.14861
2.15847
2.16758
2.17594
2.18353
2.19036
2.19642
2.20171
2.20622
2.20997
2.21293
2.21512
2.21653
2.21717
2.21703
2.21612
2.21444
2.212
2.20879
2.20483
2.20011
2.19465
2.18845
2.18152
2.17387
2.16551
2.15645
2.14669
2.13626
2.12516
2.1134
2.10101
2.088
2.07437
2.06015
2.04539
2.03009
2.01427
1.99797
1.98119
1.96398
1.94634
1.92831
1.90994
1.89126
1.87231
1.8531
1.83362
1.81388
1.7939
1.77369
1.75327
1.73267
1.7119
1.69099
1.66996
1.64883
1.62762
1.60635
1.58504
1.56372
1.5424
1.5211
1.49983
1.47863
1.4575
1.43646
1.41553
1.39473
1.37407
1.35357
1.33324
1.31311
1.2932
1.27354
1.25416
1.23515
1.21661
1.19873
1.18159
1.16533
0.0413452
0.0820267
0.103758
0.119128
0.131819
0.143259
0.154197
0.16508
0.176182
0.187662
0.199607
0.212063
0.225053
0.238599
0.252723
0.267451
0.282809
0.298822
0.315507
0.332876
0.350931
0.369666
0.389069
0.40912
0.429797
0.451075
0.472926
0.495323
0.518239
0.541648
0.565525
0.589849
0.614598
0.639754
0.6653
0.691221
0.717504
0.744136
0.771106
0.798404
0.826019
0.853942
0.882163
0.910672
0.939458
0.968511
0.997819
1.02737
1.05715
1.08715
1.11734
1.14772
1.17826
1.20895
1.23976
1.27068
1.30169
1.33275
1.36385
1.39496
1.42606
1.45711
1.48811
1.51901
1.5498
1.58044
1.61091
1.64119
1.67125
1.70106
1.7306
1.75984
1.78875
1.81726
1.84536
1.87302
1.90022
1.92695
1.95319
1.9789
2.00407
2.02868
2.05271
2.07613
2.09892
2.12108
2.14257
2.16337
2.18348
2.20288
2.22155
2.23948
2.25665
2.27306
2.28868
2.30352
2.31755
2.33078
2.34319
2.35477
2.36552
2.37543
2.3845
2.39272
2.40009
2.40661
2.41226
2.41706
2.42099
2.42407
2.42628
2.42763
2.42812
2.42775
2.42653
2.42446
2.42154
2.41777
2.41317
2.40775
2.4015
2.39444
2.38657
2.37791
2.36847
2.35826
2.34728
2.33556
2.32312
2.30995
2.29608
2.28155
2.26638
2.25056
2.23415
2.21715
2.1996
2.1815
2.1629
2.14381
2.12427
2.10429
2.08393
2.06322
2.04218
2.02085
1.99922
1.97731
1.95514
1.93273
1.9101
1.88728
1.86428
1.84114
1.81787
1.7945
1.77105
1.74755
1.72401
1.70046
1.67692
1.65342
1.62996
1.60658
1.58328
1.5601
1.53705
1.51415
1.49141
1.46887
1.44654
1.42446
1.40264
1.38114
1.36002
1.33936
1.31931
1.30007
1.28177
1.26458
0.0481025
0.0911415
0.114804
0.131546
0.145289
0.157554
0.169146
0.180552
0.192085
0.203949
0.21627
0.229129
0.242576
0.256646
0.271366
0.286761
0.302849
0.319646
0.337162
0.355399
0.374353
0.394017
0.414376
0.435412
0.457105
0.479434
0.502374
0.525904
0.550001
0.574644
0.599813
0.625489
0.651655
0.678295
0.705395
0.732941
0.760922
0.789325
0.818141
0.847358
0.876967
0.906957
0.937317
0.968036
0.999103
1.03051
1.06223
1.09426
1.12658
1.15918
1.19203
1.22511
1.25842
1.29191
1.32557
1.35938
1.3933
1.42732
1.4614
1.49551
1.52962
1.56371
1.59775
1.6317
1.66552
1.6992
1.73271
1.766
1.79904
1.83182
1.8643
1.89646
1.92821
1.95953
1.99038
2.02076
2.05063
2.07996
2.10874
2.13694
2.16454
2.19151
2.21783
2.24347
2.26841
2.29264
2.31613
2.33886
2.36081
2.38197
2.40232
2.42185
2.44054
2.45838
2.47536
2.49146
2.50668
2.521
2.53441
2.54692
2.5585
2.56916
2.57889
2.58769
2.59555
2.60247
2.60845
2.61348
2.61756
2.6207
2.62289
2.62414
2.62445
2.62382
2.62226
2.61976
2.61634
2.61201
2.60676
2.6006
2.59356
2.58562
2.57681
2.56714
2.55662
2.54527
2.53308
2.52009
2.50633
2.4918
2.47652
2.46053
2.44384
2.42647
2.40845
2.3898
2.37055
2.35072
2.33035
2.30945
2.28806
2.26621
2.24393
2.22126
2.19823
2.17487
2.15119
2.12721
2.10296
2.07845
2.05372
2.02878
2.00367
1.9784
1.95301
1.92751
1.90194
1.87632
1.85067
1.82502
1.79939
1.7738
1.74827
1.72283
1.6975
1.6723
1.64725
1.62237
1.59769
1.57324
1.54903
1.52511
1.50152
1.4783
1.45554
1.43335
1.41185
1.39127
1.37169
1.35328
0.0539122
0.0979255
0.122984
0.14079
0.155393
0.168369
0.180548
0.19244
0.204383
0.216606
0.229266
0.242467
0.256279
0.270751
0.285915
0.301796
0.318409
0.335765
0.35387
0.372724
0.392321
0.412653
0.433709
0.455474
0.477932
0.501065
0.524857
0.549291
0.574349
0.600014
0.626273
0.653109
0.68051
0.708463
0.736956
0.765978
0.795517
0.825563
0.856107
0.887136
0.918642
0.950613
0.983037
1.0159
1.04919
1.0829
1.117
1.15148
1.18632
1.2215
1.257
1.2928
1.32886
1.36517
1.40169
1.4384
1.47527
1.51226
1.54934
1.58648
1.62363
1.66078
1.69788
1.73489
1.77178
1.80852
1.84506
1.88138
1.91743
1.95319
1.98861
2.02367
2.05827
2.09239
2.126
2.15908
2.19159
2.22351
2.25481
2.28548
2.31547
2.34476
2.37333
2.40116
2.42821
2.45447
2.47991
2.50451
2.52826
2.55114
2.57313
2.5942
2.61436
2.63358
2.65186
2.66917
2.68552
2.70088
2.71525
2.72862
2.74099
2.75235
2.7627
2.77202
2.78032
2.7876
2.79385
2.79907
2.80326
2.80643
2.80857
2.80968
2.80977
2.80885
2.80691
2.80397
2.80003
2.79509
2.78916
2.78226
2.77441
2.76559
2.75583
2.74513
2.73354
2.72105
2.70769
2.69346
2.67841
2.66253
2.64587
2.62843
2.61025
2.59135
2.57175
2.55148
2.53057
2.50905
2.48694
2.46428
2.44109
2.41741
2.39327
2.36871
2.34376
2.31844
2.29278
2.26682
2.24056
2.21404
2.18728
2.16031
2.13316
2.10586
2.07843
2.0509
2.0233
1.99565
1.96799
1.94032
1.91269
1.88511
1.8576
1.8302
1.80293
1.7758
1.74885
1.72209
1.69556
1.66929
1.6433
1.61764
1.59236
1.56752
1.5432
1.51951
1.4966
1.47466
1.45375
1.43399
0.0586946
0.102554
0.128525
0.147106
0.16238
0.175948
0.188646
0.20099
0.213324
0.225891
0.238865
0.252364
0.266475
0.281253
0.29674
0.312961
0.329935
0.347672
0.366178
0.385452
0.405494
0.426297
0.447853
0.470153
0.493188
0.516945
0.541414
0.566583
0.592441
0.618977
0.646181
0.674042
0.702551
0.731698
0.761474
0.79187
0.822876
0.854483
0.886682
0.919461
0.95281
0.986717
1.02117
1.05615
1.09165
1.12764
1.16411
1.20104
1.23841
1.27619
1.31435
1.35287
1.39172
1.43087
1.47028
1.50993
1.54976
1.58975
1.62986
1.67005
1.71027
1.75049
1.79067
1.83077
1.87074
1.91054
1.95013
1.98948
2.02853
2.06726
2.10563
2.14357
2.181
2.2179
2.25423
2.28997
2.32509
2.35956
2.39335
2.42643
2.45876
2.49033
2.52111
2.55106
2.58016
2.60839
2.63573
2.66215
2.68763
2.71216
2.73571
2.75827
2.77983
2.80037
2.81988
2.83835
2.85576
2.8721
2.88737
2.90155
2.91464
2.92664
2.93754
2.94734
2.95603
2.96362
2.97009
2.97546
2.97971
2.98286
2.9849
2.98584
2.98568
2.98443
2.98209
2.97867
2.97418
2.96862
2.96199
2.95433
2.94565
2.93594
2.92524
2.91354
2.90088
2.88728
2.87274
2.85729
2.84095
2.82375
2.80571
2.78686
2.76721
2.7468
2.72565
2.7038
2.68127
2.65809
2.63429
2.60991
2.58497
2.55951
2.53356
2.50716
2.48035
2.45315
2.42559
2.3977
2.36951
2.34105
2.31234
2.28342
2.25432
2.22506
2.19568
2.1662
2.13665
2.10706
2.07745
2.04786
2.01831
1.98883
1.95943
1.93015
1.90102
1.87205
1.84328
1.81473
1.78643
1.75842
1.73073
1.70341
1.67651
1.65011
1.62428
1.59915
1.57485
1.55154
1.52926
1.5081
0.0624718
0.10529
0.131758
0.150851
0.166616
0.180652
0.193788
0.20653
0.219222
0.232109
0.245366
0.259123
0.273472
0.28848
0.304192
0.320641
0.337849
0.355828
0.37459
0.394138
0.414475
0.4356
0.457512
0.480208
0.503684
0.527935
0.552957
0.578745
0.605294
0.632598
0.660652
0.68945
0.718988
0.749258
0.780254
0.811969
0.844396
0.877525
0.911348
0.945853
0.981029
1.01686
1.05334
1.09044
1.12815
1.16645
1.20531
1.24471
1.28463
1.32503
1.36589
1.40717
1.44883
1.49085
1.53318
1.57577
1.6186
1.66161
1.70476
1.74801
1.7913
1.8346
1.87786
1.92103
1.96406
2.0069
2.04952
2.09187
2.1339
2.17557
2.21683
2.25759
2.29779
2.3374
2.37639
2.41473
2.45239
2.48933
2.52552
2.56093
2.59553
2.62929
2.66218
2.69418
2.72524
2.75535
2.78449
2.81263
2.83975
2.86584
2.89087
2.91483
2.9377
2.95947
2.98013
2.99967
3.01806
3.0353
3.05139
3.06631
3.08005
3.09262
3.10401
3.11421
3.12323
3.13107
3.13771
3.14317
3.14743
3.15051
3.15241
3.15314
3.15269
3.15107
3.14829
3.14437
3.1393
3.1331
3.12578
3.11736
3.10784
3.09726
3.08561
3.07291
3.0592
3.04448
3.02878
3.01212
2.99453
2.97602
2.95663
2.93638
2.9153
2.89342
2.87076
2.84736
2.82325
2.79846
2.77302
2.74696
2.72033
2.69315
2.66545
2.63728
2.60867
2.57966
2.55027
2.52054
2.4905
2.46018
2.42961
2.39882
2.36784
2.33672
2.30546
2.27411
2.2427
2.21125
2.1798
2.14837
2.11699
2.08569
2.05449
2.02342
1.99251
1.96179
1.93128
1.90102
1.87103
1.84136
1.81205
1.78314
1.7547
1.72679
1.69951
1.67297
1.64729
1.62261
1.59895
1.57638
0.0652902
0.106416
0.13304
0.152422
0.16851
0.182888
0.196368
0.209442
0.222441
0.235604
0.249105
0.263075
0.27761
0.292783
0.308646
0.325236
0.342583
0.360706
0.37962
0.399337
0.419866
0.441214
0.463385
0.486385
0.510217
0.534883
0.560386
0.586728
0.613909
0.641931
0.670793
0.700494
0.731033
0.762406
0.79461
0.82764
0.861489
0.896149
0.931611
0.967863
1.00489
1.04268
1.08122
1.12048
1.16044
1.20108
1.24238
1.28429
1.3268
1.36986
1.41344
1.45751
1.50201
1.54691
1.59216
1.63773
1.68354
1.72957
1.77575
1.82203
1.86837
1.91471
1.961
2.00719
2.05322
2.09904
2.14462
2.18988
2.2348
2.27931
2.32336
2.36683
2.40969
2.4519
2.49343
2.53425
2.57431
2.6136
2.65206
2.68967
2.7264
2.76222
2.7971
2.83099
2.86388
2.89574
2.92655
2.95628
2.98491
3.01243
3.03882
3.06405
3.08811
3.111
3.13269
3.15318
3.17246
3.1905
3.20731
3.22286
3.23717
3.25022
3.26201
3.27254
3.28182
3.28983
3.29658
3.30206
3.30628
3.30924
3.31095
3.31141
3.31063
3.30862
3.30539
3.30093
3.29528
3.28843
3.28041
3.27121
3.26087
3.2494
3.23682
3.22313
3.20838
3.19257
3.17573
3.15788
3.13906
3.11928
3.09857
3.07696
3.05449
3.03118
3.00706
2.98216
2.95653
2.93018
2.90316
2.8755
2.84724
2.8184
2.78903
2.75917
2.72885
2.6981
2.66697
2.63549
2.60369
2.5716
2.53925
2.50669
2.47394
2.44103
2.408
2.37489
2.34171
2.3085
2.2753
2.24212
2.209
2.17598
2.14307
2.1103
2.07771
2.04533
2.01317
1.98129
1.9497
1.91846
1.8876
1.85718
1.82726
1.79791
1.76923
1.74132
1.71429
1.68826
1.66323
1.63925
0.0672024
0.106197
0.132712
0.152201
0.168469
0.183071
0.196798
0.210124
0.223366
0.236752
0.250449
0.264586
0.279261
0.294549
0.310508
0.327183
0.344609
0.362814
0.381821
0.401649
0.422317
0.443837
0.466226
0.489494
0.513653
0.538715
0.564688
0.591581
0.619401
0.648154
0.677846
0.708479
0.740056
0.772577
0.80604
0.840441
0.875774
0.912032
0.949203
0.987275
1.02623
1.06605
1.10672
1.14821
1.1905
1.23355
1.27733
1.32181
1.36695
1.41271
1.45905
1.50591
1.55326
1.60105
1.64922
1.69772
1.74649
1.79548
1.84463
1.89388
1.94318
1.99246
2.04168
2.09077
2.13967
2.18835
2.23673
2.28477
2.33242
2.37963
2.42625
2.47225
2.51758
2.5622
2.60608
2.64918
2.69146
2.73289
2.77343
2.81304
2.85171
2.88939
2.92605
2.96167
2.9962
3.02962
3.06191
3.09305
3.12302
3.1518
3.17937
3.20571
3.23081
3.25466
3.27724
3.29855
3.31858
3.3373
3.35469
3.37077
3.38552
3.39895
3.41104
3.42181
3.43124
3.43935
3.44612
3.45156
3.45568
3.45847
3.45994
3.4601
3.45896
3.45653
3.45281
3.44781
3.44155
3.43405
3.42531
3.41535
3.40418
3.39184
3.37833
3.36367
3.3479
3.33102
3.31308
3.29408
3.27406
3.25305
3.23107
3.20816
3.18435
3.15967
3.13415
3.10783
3.08074
3.05291
3.02439
2.9952
2.96539
2.93499
2.90404
2.87257
2.84064
2.80826
2.77549
2.74236
2.7089
2.67515
2.64114
2.60691
2.57249
2.53792
2.50323
2.46845
2.43362
2.39876
2.36391
2.3291
2.29436
2.25972
2.2252
2.19085
2.15668
2.12273
2.08903
2.05562
2.02253
1.9898
1.95749
1.92563
1.89431
1.86359
1.83357
1.80434
1.776
1.74864
1.72227
1.69693
0.0682567
0.104871
0.131081
0.150539
0.16687
0.181592
0.195475
0.208974
0.222393
0.235945
0.249791
0.264056
0.278837
0.294212
0.310242
0.326979
0.344467
0.36274
0.381833
0.401772
0.422585
0.444296
0.466928
0.490501
0.515037
0.540553
0.567065
0.594589
0.623138
0.652722
0.683351
0.715032
0.74777
0.781567
0.816422
0.85233
0.889287
0.92728
0.966298
1.00632
1.04734
1.08932
1.13223
1.17606
1.22076
1.26631
1.31265
1.35975
1.40757
1.45605
1.50515
1.55481
1.60498
1.6556
1.70662
1.75798
1.80961
1.86146
1.91345
1.96552
2.0176
2.06965
2.1216
2.17339
2.22496
2.27625
2.32721
2.37779
2.42793
2.47752
2.52646
2.57471
2.62224
2.66899
2.71494
2.76004
2.80425
2.84754
2.88988
2.93122
2.97155
3.01083
3.04904
3.08611
3.12203
3.15676
3.1903
3.22262
3.2537
3.28351
3.31206
3.3393
3.36525
3.38987
3.41315
3.4351
3.45569
3.47492
3.49276
3.50922
3.52429
3.53798
3.55027
3.56117
3.57067
3.57879
3.58551
3.59084
3.59478
3.59734
3.59853
3.59835
3.59681
3.59392
3.58969
3.58413
3.57726
3.56909
3.55963
3.54891
3.53694
3.52373
3.50932
3.49372
3.47696
3.45906
3.44005
3.41995
3.39879
3.37661
3.35343
3.32928
3.30421
3.27823
3.25139
3.22372
3.19527
3.16605
3.13612
3.10551
3.07425
3.04239
3.00997
2.97701
2.94358
2.90969
2.8754
2.84074
2.80575
2.77046
2.73492
2.69915
2.66319
2.62708
2.59085
2.55454
2.51818
2.4818
2.44544
2.40912
2.37287
2.33674
2.30074
2.26492
2.22929
2.19389
2.15876
2.12393
2.08944
2.05533
2.02166
1.98847
1.95583
1.92382
1.89252
1.86202
1.83242
1.8038
1.77613
1.74948
0.0684891
0.102644
0.128414
0.147742
0.164047
0.178808
0.192771
0.206378
0.219915
0.233589
0.247552
0.261926
0.276807
0.292273
0.308392
0.325222
0.342812
0.361209
0.380455
0.400587
0.421642
0.443653
0.466654
0.490674
0.515743
0.541886
0.569127
0.597483
0.62697
0.657605
0.689399
0.722362
0.7565
0.791814
0.828303
0.865959
0.904773
0.94473
0.985813
1.028
1.07126
1.11557
1.16089
1.20719
1.25443
1.30255
1.35152
1.40128
1.45178
1.50297
1.55478
1.60717
1.66006
1.7134
1.76711
1.82115
1.87546
1.92995
1.98453
2.03916
2.09376
2.14827
2.20264
2.2568
2.3107
2.36427
2.41746
2.47022
2.52245
2.57402
2.62489
2.67501
2.72434
2.77283
2.82046
2.86718
2.91295
2.95773
3.0015
3.04421
3.08584
3.12635
3.16573
3.20392
3.24089
3.27664
3.31113
3.34434
3.37625
3.40685
3.43611
3.46402
3.49058
3.51575
3.53954
3.56192
3.5829
3.60245
3.62058
3.63727
3.65251
3.66632
3.67868
3.6896
3.69906
3.70709
3.71367
3.7188
3.72251
3.72478
3.72562
3.72505
3.72308
3.7197
3.71494
3.70881
3.70131
3.69248
3.68231
3.67084
3.65808
3.64405
3.62877
3.61227
3.59457
3.57569
3.55567
3.53453
3.51231
3.48903
3.46473
3.43943
3.41318
3.38601
3.35795
3.32904
3.29933
3.26884
3.23761
3.20569
3.17312
3.13993
3.10616
3.07185
3.03705
3.0018
2.96613
2.93008
2.8937
2.85703
2.82009
2.78293
2.74558
2.70808
2.67046
2.63277
2.59502
2.55727
2.51953
2.48185
2.44425
2.40676
2.36942
2.33225
2.2953
2.25859
2.22215
2.18603
2.15026
2.11489
2.07996
2.04554
2.01168
1.97847
1.94598
1.91429
1.8835
1.85367
1.82477
1.79688
0.0679261
0.0996724
0.124924
0.144064
0.160292
0.17504
0.189035
0.202706
0.216333
0.230113
0.244198
0.258705
0.273732
0.28936
0.305659
0.322695
0.340528
0.35921
0.378794
0.399329
0.420859
0.443428
0.467077
0.491846
0.51777
0.544887
0.573232
0.6028
0.633614
0.665694
0.699053
0.733699
0.769635
0.806858
0.845361
0.885132
0.926153
0.968401
1.01185
1.05647
1.10222
1.14907
1.19697
1.24587
1.29573
1.34649
1.39809
1.45048
1.5036
1.55738
1.61176
1.66668
1.72207
1.77785
1.83397
1.89036
1.94695
2.00366
2.06043
2.11718
2.17384
2.23037
2.28669
2.34274
2.39847
2.45383
2.50875
2.56316
2.6169
2.66993
2.7222
2.77367
2.8243
2.87403
2.92284
2.97069
3.01753
3.06334
3.10808
3.15171
3.1942
3.23554
3.27567
3.31459
3.35225
3.38863
3.42371
3.45748
3.4899
3.52096
3.55065
3.57895
3.60584
3.63131
3.65535
3.67795
3.6991
3.71878
3.737
3.75374
3.769
3.78277
3.79506
3.80586
3.81517
3.823
3.82935
3.83421
3.83759
3.83951
3.83996
3.83895
3.8365
3.83261
3.82731
3.82059
3.81247
3.80298
3.79212
3.77993
3.76641
3.75159
3.73549
3.71814
3.69956
3.67978
3.65883
3.63674
3.61354
3.58925
3.56393
3.53759
3.51027
3.48202
3.45287
3.42285
3.39201
3.36038
3.328
3.29492
3.26117
3.2268
3.19184
3.15634
3.12034
3.08387
3.04699
3.00973
2.97213
2.93423
2.89607
2.85768
2.81911
2.78039
2.74156
2.70264
2.66369
2.62472
2.58578
2.54689
2.50809
2.46941
2.43088
2.39254
2.35441
2.31653
2.27893
2.24166
2.20474
2.16823
2.13218
2.09664
2.06168
2.02737
1.99378
1.96099
1.92909
1.89813
1.86809
1.83904
0.0665126
0.0958527
0.120618
0.139569
0.155713
0.170439
0.184464
0.198208
0.211951
0.225889
0.240176
0.254935
0.270274
0.286263
0.302982
0.320505
0.338902
0.358237
0.378571
0.399961
0.422461
0.446121
0.470989
0.497107
0.524514
0.553245
0.583325
0.614771
0.647599
0.681817
0.717431
0.75444
0.792835
0.832604
0.873727
0.916179
0.95993
1.00494
1.05118
1.0986
1.14715
1.19678
1.24744
1.29907
1.3516
1.40499
1.45916
1.51406
1.56961
1.62574
1.6824
1.73951
1.797
1.85481
1.91287
1.97111
2.02945
2.08784
2.14621
2.20448
2.26259
2.3205
2.37812
2.43542
2.49233
2.54882
2.60478
2.66006
2.71463
2.76844
2.82144
2.87359
2.92485
2.97518
3.02455
3.07291
3.12023
3.16648
3.21162
3.25562
3.29845
3.34009
3.3805
3.41966
3.45755
3.49413
3.52938
3.56329
3.59583
3.62699
3.65675
3.68509
3.712
3.73746
3.76147
3.78401
3.80507
3.82464
3.84272
3.85929
3.87436
3.88792
3.89996
3.91049
3.9195
3.927
3.93298
3.93745
3.94042
3.94189
3.94187
3.94036
3.93738
3.93294
3.92704
3.91971
3.91096
3.9008
3.88926
3.87635
3.86209
3.84651
3.82962
3.81147
3.79206
3.77144
3.74963
3.72665
3.70255
3.67735
3.65109
3.62381
3.59554
3.56632
3.53619
3.50518
3.47334
3.4407
3.40731
3.3732
3.33843
3.30302
3.26702
3.23047
3.19342
3.15591
3.11797
3.07966
3.041
3.00204
2.96282
2.92338
2.88375
2.84398
2.80409
2.76412
2.72412
2.6841
2.64412
2.60418
2.56435
2.52463
2.48507
2.44569
2.40653
2.36763
2.32901
2.29072
2.25279
2.21527
2.17822
2.14168
2.10571
2.0704
2.03581
2.00201
1.96909
1.93708
1.90597
1.87585
0.0645844
0.0919755
0.116143
0.134913
0.150995
0.165734
0.179841
0.193741
0.207718
0.221978
0.23668
0.251955
0.267915
0.284654
0.30226
0.320816
0.3404
0.361083
0.382933
0.406011
0.430374
0.456072
0.483149
0.511642
0.541582
0.57299
0.60588
0.640259
0.676122
0.713464
0.752267
0.792511
0.834167
0.877203
0.921579
0.967252
1.01417
1.06229
1.11156
1.16191
1.21329
1.26564
1.31889
1.37299
1.42786
1.48345
1.53969
1.59651
1.65385
1.71164
1.76982
1.82832
1.88709
1.94604
2.00513
2.06429
2.12345
2.18256
2.24155
2.30037
2.35895
2.41725
2.47521
2.53279
2.58994
2.64654
2.70247
2.75769
2.81217
2.86585
2.9187
2.97067
3.02174
3.07186
3.121
3.16912
3.21619
3.26218
3.30706
3.35078
3.39334
3.43469
3.47481
3.51368
3.55127
3.58755
3.62251
3.65612
3.68836
3.71922
3.74867
3.7767
3.8033
3.82845
3.85214
3.87435
3.89507
3.9143
3.93203
3.94825
3.96295
3.97613
3.98779
3.99791
4.00651
4.01359
4.01913
4.02315
4.02566
4.02664
4.02613
4.02411
4.0206
4.01562
4.00917
4.00127
3.99193
3.98117