/*--------------------------------*- C++ -*----------------------------------*\
| =========                 |                                                 |
| \\      /  F ield         | OpenFOAM: The Open Source CFD Toolbox           |
|  \\    /   O peration     | Version:  2412                                  |
|   \\  /    A nd           | Website:  www.openfoam.com                      |
|    \\/     M anipulation  |                                                 |
\*---------------------------------------------------------------------------*/
FoamFile
{
    version     2.0;
    format      ascii;
    arch        "LSB;label=32;scalar=64";
    class       volScalarField;
    location    "0.17";
    object      nut;
}
// * * * * * * * * * * * * * * * * * * * * * * * * * * * * * * * * * * * * * //

dimensions      [0 2 -1 0 0 0 0];

internalField   nonuniform List<scalar> 
12225
(
2.015e-05
2.24858e-05
2.47491e-05
2.63714e-05
2.75879e-05
2.85141e-05
2.92322e-05
2.97979e-05
3.02482e-05
3.06096e-05
3.09013e-05
3.11375e-05
3.13288e-05
3.14828e-05
3.16053e-05
3.16994e-05
3.17679e-05
3.1828e-05
0.000167792
0.000185428
0.000202597
0.000213786
0.000221145
0.000225984
0.000229001
0.00023072
0.000231514
0.000231643
0.000231292
0.000230594
0.00022965
0.000228531
0.000227296
0.00022597
0.000224709
0.000224074
0.000338328
0.000365994
0.000399361
0.000424406
0.000442779
0.000456138
0.000465648
0.000472248
0.000476657
0.000479409
0.000480904
0.000481446
0.000481263
0.000480529
0.000479375
0.000477902
0.000476299
0.000475466
0.000480631
0.00052177
0.000570121
0.00060839
0.000637801
0.000660208
0.000677097
0.00068969
0.000698951
0.000705623
0.000710278
0.000713358
0.000715205
0.000716085
0.000716207
0.000715738
0.00071491
0.000714437
0.00059357
0.000650967
0.000713489
0.000763784
0.000803282
0.000834122
0.000858087
0.000876628
0.000890894
0.000901782
0.000909996
0.000916087
0.000920489
0.000923545
0.00092553
0.00092667
0.00092722
0.000927693
0.000684417
0.000756655
0.00083195
0.000893053
0.000941625
0.000980102
0.00101056
0.00103466
0.00105369
0.0010687
0.00108048
0.00108967
0.00109677
0.00110221
0.0011063
0.00110932
0.00111154
0.00111332
0.000759755
0.000842839
0.000928291
0.000998647
0.00105522
0.00110054
0.00113687
0.00116606
0.00118953
0.00120842
0.00122362
0.00123584
0.00124564
0.00125348
0.00125975
0.00126474
0.00126871
0.00127196
0.000823624
0.000913364
0.00100525
0.00108261
0.00114578
0.00119702
0.00123857
0.00127237
0.00129992
0.00132243
0.00134086
0.00135598
0.0013684
0.00137862
0.00138705
0.00139401
0.00139976
0.00140451
0.000877002
0.000970915
0.0010653
0.00114672
0.00121456
0.00127046
0.0013164
0.00135422
0.00138543
0.00141127
0.00143272
0.00145059
0.00146553
0.00147806
0.00148862
0.00149753
0.00150503
0.00151128
0.000918257
0.00101593
0.00110995
0.00119241
0.00126253
0.0013214
0.00137056
0.00141158
0.00144588
0.00147464
0.00149884
0.00151927
0.0015366
0.00155136
0.00156399
0.00157482
0.00158405
0.00159177
0.000944751
0.00104624
0.0011388
0.00122006
0.00129015
0.00135004
0.00140091
0.00144403
0.00148061
0.00151172
0.00153825
0.00156096
0.00158048
0.00159733
0.00161194
0.00162462
0.00163556
0.00164472
0.00095393
0.00105647
0.00114713
0.00122621
0.0012948
0.00135413
0.00140529
0.00144931
0.00148721
0.00151988
0.00154812
0.00157261
0.00159392
0.00161254
0.00162886
0.00164318
0.00165563
0.0016661
0.000951546
0.0010519
0.0011407
0.00121792
0.00128482
0.00134291
0.00139338
0.00143726
0.00147547
0.00150881
0.00153797
0.00156357
0.0015861
0.00160602
0.00162367
0.0016393
0.00165301
0.00166457
0.000937267
0.00102693
0.00110962
0.00118334
0.00124794
0.00130435
0.00135363
0.00139678
0.00143466
0.00146803
0.00149755
0.00152374
0.00154707
0.00156793
0.00158663
0.00160338
0.00161821
0.00163073
0.000914067
0.00098252
0.00105001
0.00111402
0.00117278
0.00122568
0.00127283
0.00131465
0.00135172
0.00138465
0.001414
0.00144028
0.0014639
0.00148521
0.00150449
0.00152195
0.00153755
0.00155079
0.000888183
0.000929368
0.000972533
0.00101673
0.00106058
0.00110292
0.00114294
0.00118014
0.00121431
0.00124547
0.00127379
0.0012995
0.00132287
0.00134415
0.00136355
0.00138125
0.00139724
0.00141092
0.000866166
0.000882906
0.000901461
0.000921831
0.000943719
0.000966729
0.000990435
0.00101439
0.00103816
0.00106139
0.00108381
0.00110522
0.00112553
0.00114464
0.00116255
0.00117926
0.00119472
0.00120848
0.000853647
0.000856464
0.000860484
0.000865725
0.000872138
0.000879659
0.000888218
0.000897724
0.000908065
0.000919112
0.000930724
0.000942762
0.000955088
0.000967579
0.000980113
0.000992573
0.00100484
0.00101668
0.000856837
0.000863038
0.000870431
0.000879022
0.000888696
0.000899301
0.000910669
0.000922615
0.000934944
0.00094747
0.000960027
0.000972476
0.000984703
0.000996626
0.00100818
0.00101934
0.00103003
0.00104003
0.000879013
0.000910089
0.000943
0.000977092
0.00101137
0.00104492
0.00107706
0.00110729
0.00113533
0.00116108
0.00118455
0.00120585
0.00122515
0.0012426
0.00125839
0.00127268
0.00128558
0.00129718
0.000912426
0.000978629
0.00104329
0.00110414
0.00115968
0.00120944
0.00125357
0.00129249
0.00132674
0.00135687
0.00138341
0.00140682
0.00142751
0.00144582
0.00146208
0.00147652
0.00148937
0.00150091
0.000944651
0.00103936
0.00112414
0.00119816
0.00126208
0.00131725
0.00136491
0.00140608
0.00144169
0.00147253
0.00149927
0.00152249
0.0015427
0.0015603
0.00157567
0.00158911
0.00160086
0.0016112
0.000952969
0.00105495
0.00114494
0.00122286
0.00128968
0.0013468
0.00139547
0.00143684
0.00147199
0.00150188
0.00152734
0.00154906
0.00156762
0.00158349
0.00159709
0.00160875
0.00161875
0.00162732
0.000919762
0.00101577
0.00110711
0.00118655
0.00125366
0.00130983
0.00135662
0.00139556
0.00142799
0.00145507
0.00147771
0.00149668
0.00151258
0.00152594
0.00153714
0.00154655
0.00155443
0.00156096
0.00084792
0.000936212
0.00102591
0.00110193
0.0011644
0.00121544
0.00125709
0.00129112
0.00131899
0.00134186
0.00136064
0.00137609
0.00138877
0.00139919
0.00140772
0.00141468
0.00142032
0.0014248
0.000748242
0.000825344
0.000905837
0.000972006
0.00102523
0.00106796
0.00110226
0.00112982
0.00115199
0.00116982
0.00118414
0.00119563
0.00120479
0.00121206
0.00121778
0.00122223
0.00122561
0.00122806
0.000620839
0.000679397
0.000743804
0.000795903
0.000837072
0.000869523
0.000895047
0.000915073
0.00093074
0.000942941
0.000952378
0.000959602
0.000965049
0.000969066
0.000971928
0.000973858
0.000975028
0.000975556
0.000453206
0.00049108
0.000536514
0.000572228
0.00059936
0.000619978
0.00063556
0.00064722
0.00065584
0.0006621
0.00066652
0.000669501
0.000671356
0.000672327
0.000672604
0.000672338
0.000671648
0.000670631
0.00023657
0.000259231
0.000284033
0.000301437
0.000313163
0.000321244
0.000326756
0.000330375
0.000332603
0.000333805
0.000334244
0.000334114
0.000333559
0.00033269
0.00033159
0.000330324
0.00032894
0.000327502
2.7242e-05
3.0171e-05
3.32398e-05
3.54418e-05
3.70548e-05
3.82621e-05
3.91811e-05
3.98938e-05
4.04546e-05
4.09005e-05
4.1258e-05
4.15467e-05
4.17812e-05
4.19726e-05
4.21294e-05
4.22583e-05
4.2364e-05
4.24515e-05
5.24588e-06
1.41339e-05
1.59601e-05
1.72315e-05
1.81326e-05
1.88496e-05
1.96485e-05
2.04446e-05
2.12355e-05
2.20394e-05
2.28903e-05
2.38787e-05
2.50456e-05
2.62698e-05
2.75268e-05
2.8807e-05
3.01081e-05
3.14289e-05
3.27668e-05
3.41181e-05
3.54782e-05
3.68422e-05
3.82057e-05
3.9565e-05
4.09172e-05
4.22608e-05
4.35955e-05
4.49225e-05
4.62448e-05
4.75674e-05
4.88901e-05
5.01941e-05
5.14777e-05
5.27405e-05
5.39824e-05
5.52034e-05
5.64038e-05
5.75839e-05
5.8744e-05
5.98846e-05
6.1006e-05
6.21088e-05
6.31931e-05
6.42596e-05
6.53084e-05
6.63399e-05
6.73542e-05
6.83518e-05
6.93326e-05
7.02968e-05
7.12446e-05
7.21759e-05
7.30908e-05
7.39892e-05
7.48712e-05
7.57366e-05
7.65855e-05
7.74175e-05
7.82328e-05
7.90311e-05
7.98123e-05
8.05764e-05
8.1323e-05
8.20522e-05
8.27638e-05
8.34576e-05
8.41336e-05
8.47916e-05
8.54317e-05
8.60538e-05
8.66582e-05
8.72455e-05
8.78168e-05
8.83739e-05
8.89205e-05
8.94493e-05
8.99576e-05
9.04462e-05
9.09155e-05
9.13656e-05
9.17967e-05
9.22085e-05
9.26012e-05
9.29746e-05
9.33287e-05
9.36633e-05
9.39786e-05
9.42744e-05
9.45507e-05
9.48076e-05
9.5045e-05
9.52628e-05
9.54613e-05
9.56402e-05
9.57997e-05
9.59399e-05
9.60606e-05
9.61621e-05
9.62443e-05
9.63073e-05
9.63511e-05
9.63758e-05
9.63815e-05
9.63683e-05
9.63361e-05
9.62852e-05
9.62155e-05
9.61273e-05
9.60204e-05
9.58951e-05
9.57515e-05
9.55896e-05
9.54096e-05
9.52116e-05
9.49957e-05
9.4762e-05
9.45108e-05
9.4242e-05
9.3956e-05
9.36528e-05
9.33326e-05
9.29956e-05
9.26421e-05
9.22722e-05
9.18861e-05
9.14841e-05
9.10664e-05
9.06332e-05
9.01849e-05
8.97217e-05
8.9244e-05
8.87519e-05
8.82459e-05
8.77262e-05
8.71933e-05
8.66474e-05
8.60891e-05
8.55185e-05
8.49363e-05
8.43434e-05
8.37385e-05
8.31264e-05
8.2511e-05
8.19388e-05
8.15174e-05
8.11179e-05
8.07124e-05
8.0299e-05
7.98777e-05
7.94488e-05
7.90127e-05
7.85697e-05
7.81202e-05
7.76646e-05
7.72034e-05
7.67368e-05
7.62654e-05
7.57896e-05
7.53097e-05
7.48262e-05
7.43394e-05
7.38499e-05
7.3358e-05
7.2864e-05
7.23684e-05
7.18714e-05
7.13732e-05
7.08741e-05
7.03742e-05
6.98732e-05
6.9371e-05
6.88668e-05
6.83592e-05
6.7846e-05
6.73228e-05
6.67818e-05
6.6205e-05
6.55474e-05
6.4731e-05
6.3669e-05
7.58462e-06
3.49081e-05
6.8635e-05
9.44933e-05
0.000112443
0.000124493
0.000131396
0.000136131
0.000140289
0.000144421
0.000148568
0.000152616
0.000156547
0.000160472
0.00016448
0.000168656
0.000173077
0.000177807
0.000182903
0.000188402
0.000194333
0.000200707
0.000207525
0.000214777
0.000222443
0.000230495
0.000238898
0.000247612
0.000256598
0.000265819
0.000275251
0.000284879
0.000294679
0.000304628
0.000314702
0.000324878
0.000335136
0.000345461
0.000355837
0.000366252
0.000376696
0.000387159
0.000397636
0.000408121
0.000418608
0.000429093
0.000439573
0.000450045
0.000460504
0.000470948
0.000481373
0.000491776
0.000502152
0.000512498
0.00052281
0.000533082
0.000543309
0.000553488
0.000563612
0.000573677
0.000583677
0.000593607
0.00060346
0.000613233
0.00062292
0.000632514
0.00064201
0.0006514
0.000660677
0.000669828
0.000678837
0.000687679
0.000696318
0.000704706
0.000712522
0.00071996
0.00072722
0.000734335
0.00074131
0.000748144
0.000754834
0.000761378
0.000767774
0.00077402
0.000780113
0.000786051
0.000791832
0.000797453
0.000802914
0.000808212
0.000813346
0.000818314
0.000823115
0.000827748
0.000832212
0.000836505
0.000840626
0.000844576
0.000848352
0.000851955
0.000855384
0.000858637
0.000861716
0.000864618
0.000867344
0.000869893
0.000872266
0.00087446
0.000876477
0.000878316
0.000879977
0.00088146
0.000882764
0.00088389
0.000884837
0.000885606
0.000886196
0.000886608
0.000886842
0.000886899
0.000886779
0.000886482
0.000886009
0.000885362
0.00088454
0.000883545
0.000882378
0.00088104
0.000879534
0.00087786
0.00087602
0.000874017
0.000871851
0.000869527
0.000867046
0.00086441
0.000861625
0.00085869
0.000855609
0.000852394
0.00084904
0.000845501
0.000841678
0.000837112
0.000831065
0.000824402
0.000817483
0.00081041
0.00080322
0.000795931
0.000788553
0.000781096
0.000773566
0.000765971
0.000758317
0.00075061
0.000742855
0.000735059
0.000727226
0.000719364
0.000711476
0.000703568
0.000695645
0.000687712
0.000679773
0.000671832
0.000663894
0.000655961
0.000648037
0.000640122
0.000632217
0.000624319
0.000616424
0.000608521
0.000600587
0.000592584
0.00058441
0.000575804
0.000563121
0.000539622
9.16374e-06
5.6705e-05
0.000113034
0.000155609
0.000185006
0.000204397
0.000217394
0.000226822
0.000234596
0.000241819
0.000249023
0.000256435
0.000264173
0.000272334
0.000281014
0.000290309
0.000300317
0.000311121
0.000322792
0.000335376
0.000348897
0.000363357
0.000378734
0.000394987
0.00041206
0.000429886
0.000448388
0.00046749
0.000487114
0.000507188
0.000527649
0.00054844
0.000569504
0.000590794
0.000612264
0.000633875
0.000655595
0.000677396
0.000699255
0.000721154
0.000743078
0.000765014
0.000786953
0.000808885
0.000830804
0.000852703
0.000874576
0.000896415
0.000918216
0.000939971
0.000961672
0.000983313
0.00100488
0.00102638
0.00104778
0.00106909
0.00109028
0.00111136
0.0011323
0.0011531
0.00117375
0.00119422
0.00121451
0.00123461
0.00125449
0.00127415
0.00129356
0.00131272
0.00133159
0.00135015
0.00136837
0.00138621
0.00140363
0.00142058
0.00143687
0.00145272
0.00146823
0.00148343
0.00149831
0.0015129
0.00152717
0.00154113
0.00155476
0.00156807
0.00158105
0.00159369
0.00160599
0.00161794
0.00162955
0.0016408
0.00165169
0.00166223
0.0016724
0.00168221
0.00169165
0.00170072
0.00170942
0.00171774
0.00172568
0.00173325
0.00174044
0.00174725
0.00175368
0.00175972
0.00176539
0.00177066
0.00177556
0.00178006
0.00178418
0.00178792
0.00179126
0.00179422
0.0017968
0.00179898
0.00180078
0.00180219
0.00180321
0.00180385
0.0018041
0.00180397
0.00180345
0.00180255
0.00180128
0.00179962
0.00179759
0.00179518
0.00179241
0.00178926
0.00178576
0.00178189
0.00177767
0.00177309
0.00176817
0.00176291
0.00175732
0.0017514
0.00174517
0.00173862
0.00173178
0.00172463
0.00171719
0.00170935
0.00170095
0.00169159
0.00168079
0.00166907
0.00165679
0.00164414
0.0016312
0.00161801
0.00160461
0.001591
0.00157721
0.00156326
0.00154916
0.00153491
0.00152054
0.00150605
0.00149146
0.00147678
0.00146202
0.0014472
0.00143231
0.00141738
0.00140241
0.00138741
0.00137239
0.00135736
0.00134232
0.00132727
0.00131222
0.00129716
0.00128208
0.00126694
0.00125169
0.00123622
0.00122026
0.00120311
0.00118137
0.00114414
1.03533e-05
7.56024e-05
0.000148352
0.000202782
0.000240942
0.000267457
0.000286311
0.000300598
0.000312529
0.000323544
0.000334497
0.00034586
0.000357895
0.000370766
0.000384595
0.000399484
0.000415521
0.000432773
0.000451287
0.000471081
0.000492145
0.000514444
0.000537919
0.000562493
0.000588077
0.000614572
0.000641878
0.000669893
0.000698524
0.000727682
0.000757285
0.000787262
0.000817548
0.000848086
0.000878826
0.000909726
0.00094075
0.000971868
0.00100306
0.00103429
0.00106556
0.00109684
0.00112813
0.00115941
0.00119067
0.00122191
0.0012531
0.00128425
0.00131534
0.00134635
0.00137729
0.00140813
0.00143886
0.00146946
0.00149993
0.00153024
0.00156038
0.00159034
0.00162009
0.00164961
0.00167889
0.00170791
0.00173665
0.00176509
0.0017932
0.00182098
0.00184838
0.00187539
0.00190199
0.00192814
0.00195382
0.00197901
0.00200368
0.00202767
0.00205105
0.00207391
0.00209631
0.00211826
0.00213978
0.00216085
0.00218148
0.00220165
0.00222137
0.00224062
0.0022594
0.00227769
0.0022955
0.00231282
0.00232964
0.00234595
0.00236175
0.00237704
0.00239182
0.00240607
0.00241979
0.00243298
0.00244565
0.00245777
0.00246936
0.0024804
0.00249091
0.00250086
0.00251027
0.00251914
0.00252745
0.00253521
0.00254241
0.00254906
0.00255516
0.0025607
0.00256568
0.0025701
0.00257397
0.00257728
0.00258003
0.00258222
0.00258385
0.00258492
0.00258544
0.0025854
0.00258481
0.00258367
0.00258197
0.00257973
0.00257695
0.00257362
0.00256976
0.00256536
0.00256044
0.00255499
0.00254903
0.00254256
0.00253559
0.00252813
0.00252019
0.00251177
0.0025029
0.00249358
0.00248381
0.00247359
0.0024629
0.00245167
0.00243976
0.00242691
0.00241286
0.00239785
0.00238212
0.00236585
0.00234914
0.00233204
0.00231459
0.00229683
0.00227878
0.00226046
0.00224189
0.00222309
0.00220408
0.00218488
0.0021655
0.00214596
0.00212628
0.00210647
0.00208655
0.00206654
0.00204644
0.00202627
0.00200605
0.00198579
0.00196549
0.00194516
0.0019248
0.00190442
0.00188398
0.00186345
0.00184276
0.00182175
0.00180008
0.00177685
0.00174917
0.00170908
1.12145e-05
9.09932e-05
0.000176685
0.00024149
0.000288193
0.000321754
0.000346486
0.00036577
0.000382086
0.000397141
0.000412037
0.000427445
0.000443764
0.000461231
0.00048
0.000500169
0.000521805
0.000544945
0.000569595
0.000595737
0.000623324
0.000652286
0.000682538
0.000713978
0.000746499
0.00077999
0.00081434
0.000849443
0.000885198
0.000921514
0.000958305
0.000995498
0.00103303
0.00107083
0.00110886
0.00114706
0.00118542
0.00122388
0.00126242
0.00130103
0.00133968
0.00137834
0.00141701
0.00145567
0.0014943
0.0015329
0.00157143
0.0016099
0.00164829
0.00168657
0.00172474
0.00176278
0.00180066
0.00183837
0.0018759
0.00191322
0.0019503
0.00198714
0.0020237
0.00205996
0.00209591
0.00213152
0.00216677
0.00220162
0.00223607
0.00227008
0.00230363
0.0023367
0.00236926
0.00240128
0.00243275
0.00246364
0.00249393
0.0025235
0.00255243
0.00258077
0.00260857
0.00263582
0.00266254
0.00268872
0.00271436
0.00273945
0.00276399
0.00278795
0.00281135
0.00283416
0.00285638
0.002878
0.00289902
0.00291942
0.00293921
0.00295837
0.00297691
0.00299481
0.00301207
0.00302868
0.00304465
0.00305997
0.00307463
0.00308863
0.00310197
0.00311464
0.00312664
0.00313798
0.00314864
0.00315862
0.00316793
0.00317656
0.0031845
0.00319177
0.00319835
0.00320424
0.00320945
0.00321397
0.00321781
0.00322095
0.00322341
0.00322518
0.00322627
0.00322667
0.00322638
0.00322541
0.00322376
0.00322143
0.00321843
0.00321476
0.00321042
0.00320542
0.00319977
0.00319346
0.00318652
0.00317894
0.00317074
0.00316193
0.00315251
0.00314251
0.00313193
0.00312077
0.00310905
0.00309675
0.00308387
0.00307034
0.00305608
0.00304092
0.00302475
0.00300764
0.00298976
0.00297122
0.00295212
0.00293253
0.00291248
0.00289201
0.00287115
0.00284994
0.00282839
0.00280653
0.00278438
0.00276196
0.0027393
0.0027164
0.0026933
0.00267001
0.00264656
0.00262295
0.00259922
0.00257538
0.00255144
0.00252742
0.00250333
0.00247919
0.002455
0.00243076
0.00240645
0.00238204
0.00235746
0.00233254
0.00230693
0.00227977
0.00224886
0.00220965
1.20486e-05
0.000101022
0.000197952
0.000272793
0.000327992
0.000368712
0.000399521
0.000424032
0.000444955
0.000464219
0.00048313
0.000502531
0.000522943
0.00054468
0.000567927
0.000592784
0.0006193
0.000647483
0.000677309
0.000708729
0.000741669
0.000776039
0.000811737
0.000848651
0.000886668
0.000925673
0.000965555
0.00100621
0.00104753
0.00108944
0.00113184
0.00117467
0.00121785
0.00126132
0.00130505
0.00134897
0.00139305
0.00143725
0.00148154
0.00152591
0.00157031
0.00161473
0.00165915
0.00170355
0.00174791
0.00179221
0.00183643
0.00188056
0.00192458
0.00196847
0.0020122
0.00205576
0.00209913
0.00214229
0.00218521
0.00222787
0.00227025
0.00231233
0.00235407
0.00239546
0.00243647
0.00247708
0.00251727
0.002557
0.00259625
0.00263501
0.00267324
0.00271092
0.00274803
0.00278455
0.00282046
0.00285573
0.00289035
0.00292422
0.00295743
0.00299
0.00302197
0.00305333
0.0030841
0.00311427
0.00314383
0.00317278
0.0032011
0.00322879
0.00325584
0.00328223
0.00330797
0.00333304
0.00335743
0.00338114
0.00340416
0.00342648
0.00344809
0.00346899
0.00348918
0.00350864
0.00352737
0.00354537
0.00356264
0.00357915
0.00359493
0.00360995
0.00362421
0.00363772
0.00365047
0.00366246
0.00367368
0.00368412
0.0036938
0.0037027
0.00371083
0.00371818
0.00372475
0.00373053
0.00373554
0.00373976
0.0037432
0.00374585
0.00374772
0.00374881
0.00374911
0.00374864
0.00374738
0.00374535
0.00374255
0.00373898
0.00373464
0.00372955
0.0037237
0.00371711
0.00370978
0.00370171
0.00369293
0.00368344
0.00367325
0.00366237
0.00365082
0.0036386
0.00362572
0.00361217
0.00359795
0.00358303
0.00356733
0.00355078
0.0035333
0.00351494
0.00349578
0.0034759
0.00345538
0.00343427
0.00341263
0.00339049
0.00336788
0.00334483
0.00332137
0.00329753
0.00327332
0.00324878
0.00322393
0.00319879
0.00317338
0.00314773
0.00312185
0.00309578
0.00306953
0.00304312
0.00301658
0.00298993
0.00296317
0.00293634
0.00290943
0.00288246
0.00285542
0.00282829
0.00280099
0.00277341
0.0027452
0.00271566
0.00268322
0.00264559
1.29971e-05
0.000105907
0.000212476
0.000296928
0.000360527
0.000408468
0.000445503
0.00047543
0.000501135
0.000524721
0.00054766
0.000570938
0.000595188
0.000620797
0.000647987
0.000676874
0.000707501
0.000739863
0.000773916
0.000809595
0.000846812
0.000885467
0.000925452
0.000966652
0.00100895
0.00105225
0.00109642
0.00114137
0.001187
0.00123322
0.00127995
0.00132713
0.00137467
0.00142252
0.00147063
0.00151895
0.00156744
0.00161606
0.00166477
0.00171355
0.00176236
0.00181119
0.00186
0.00190878
0.0019575
0.00200614
0.00205469
0.00210311
0.0021514
0.00219952
0.00224746
0.00229519
0.0023427
0.00238996
0.00243694
0.00248362
0.00252999
0.002576
0.00262165
0.0026669
0.00271173
0.00275611
0.00280003
0.00284344
0.00288634
0.0029287
0.00297049
0.00301169
0.00305229
0.00309226
0.00313158
0.00317025
0.00320817
0.00324537
0.00328189
0.00331775
0.00335298
0.00338756
0.00342152
0.00345483
0.0034875
0.00351951
0.00355086
0.00358154
0.00361153
0.00364083
0.00366942
0.0036973
0.00372446
0.00375089
0.00377658
0.00380152
0.0038257
0.00384912
0.00387177
0.00389365
0.00391474
0.00393504
0.00395455
0.00397325
0.00399115
0.00400824
0.00402451
0.00403997
0.0040546
0.00406841
0.00408138
0.00409352
0.00410482
0.00411528
0.0041249
0.00413367
0.0041416
0.00414867
0.0041549
0.00416026
0.00416478
0.00416843
0.00417124
0.00417319
0.00417428
0.00417452
0.00417391
0.00417245
0.00417013
0.00416698
0.00416299
0.00415817
0.00415251
0.00414603
0.00413874
0.00413064
0.00412175
0.00411208
0.00410163
0.00409042
0.00407846
0.00406576
0.00405232
0.00403816
0.00402325
0.00400759
0.00399113
0.00397384
0.00395568
0.00393666
0.00391683
0.00389625
0.00387498
0.00385306
0.00383053
0.00380744
0.00378382
0.00375969
0.00373509
0.00371005
0.00368458
0.00365872
0.00363248
0.0036059
0.003579
0.00355181
0.00352434
0.00349663
0.0034687
0.00344056
0.00341226
0.0033838
0.00335522
0.00332653
0.00329776
0.00326891
0.00324
0.00321101
0.0031819
0.00315257
0.00312274
0.00309189
0.0030589
0.00302257
1.37607e-05
0.000108187
0.000221979
0.000314787
0.000386212
0.000441151
0.000484373
0.000519763
0.000550313
0.00057825
0.000605167
0.000632166
0.000659973
0.000689048
0.00071966
0.00075195
0.000785972
0.000821721
0.000859151
0.000898191
0.00093875
0.000980728
0.00102401
0.0010685
0.00111407
0.00116062
0.00120805
0.00125625
0.00130513
0.0013546
0.0014046
0.00145503
0.00150584
0.00155697
0.00160837
0.00165997
0.00171174
0.00176365
0.00181564
0.0018677
0.00191978
0.00197186
0.00202392
0.00207594
0.00212787
0.00217972
0.00223144
0.00228303
0.00233445
0.00238569
0.00243673
0.00248754
0.0025381
0.00258838
0.00263837
0.00268804
0.00273736
0.00278632
0.00283488
0.00288302
0.00293071
0.00297794
0.00302467
0.00307089
0.00311656
0.00316166
0.00320618
0.0032501
0.00329338
0.00333602
0.00337799
0.00341928
0.00345982
0.00349964
0.00353878
0.00357726
0.00361509
0.00365227
0.00368879
0.00372466
0.00375986
0.00379439
0.00382823
0.00386137
0.00389381
0.00392553
0.00395652
0.00398676
0.00401626
0.004045
0.00407296
0.00410014
0.00412654
0.00415214
0.00417693
0.00420091
0.00422408
0.00424641
0.0042679
0.00428856
0.00430836
0.00432731
0.00434541
0.00436264
0.00437901
0.0043945
0.00440911
0.00442284
0.00443569
0.00444764
0.0044587
0.00446887
0.00447814
0.00448651
0.00449397
0.00450053
0.00450617
0.00451092
0.00451476
0.00451768
0.00451969
0.00452078
0.00452098
0.00452028
0.00451866
0.00451614
0.00451273
0.00450842
0.00450323
0.00449715
0.00449021
0.00448241
0.00447376
0.00446426
0.00445393
0.00444279
0.00443083
0.00441808
0.00440453
0.0043902
0.00437509
0.00435918
0.00434245
0.0043249
0.0043065
0.00428725
0.0042672
0.00424637
0.00422481
0.00420256
0.00417966
0.00415614
0.00413204
0.00410738
0.0040822
0.00405651
0.00403035
0.00400375
0.00397672
0.00394931
0.00392152
0.00389339
0.00386495
0.00383621
0.00380721
0.00377798
0.00374854
0.00371892
0.00368914
0.00365923
0.00362923
0.00359914
0.003569
0.00353881
0.00350855
0.00347815
0.00344741
0.00341594
0.00338296
0.00334781
1.43589e-05
0.000108553
0.000227359
0.000327093
0.000405527
0.000467021
0.000516202
0.000556942
0.000592274
0.00062449
0.000655267
0.00068579
0.000716867
0.000749022
0.000782575
0.000817703
0.000854483
0.000892923
0.000932988
0.000974611
0.00101771
0.00106218
0.00110792
0.00115483
0.0012028
0.00125173
0.00130151
0.00135205
0.00140326
0.00145507
0.00150738
0.00156013
0.00161325
0.00166669
0.00172039
0.00177429
0.00182836
0.00188255
0.00193684
0.00199117
0.00204552
0.00209987
0.00215419
0.00220844
0.00226262
0.00231669
0.00237064
0.00242444
0.00247807
0.00253151
0.00258474
0.00263774
0.00269048
0.00274295
0.00279512
0.00284696
0.00289845
0.00294957
0.00300029
0.00305059
0.00310044
0.00314982
0.0031987
0.00324705
0.00329486
0.0033421
0.00338875
0.00343479
0.00348019
0.00352493
0.00356901
0.00361239
0.00365504
0.003697
0.00373829
0.00377893
0.00381892
0.00385826
0.00389694
0.00393496
0.00397232
0.00400898
0.00404496
0.00408023
0.00411478
0.00414859
0.00418166
0.00421398
0.00424552
0.00427629
0.00430627
0.00433544
0.00436381
0.00439136
0.00441807
0.00444395
0.00446899
0.00449316
0.00451647
0.00453891
0.00456047
0.00458115
0.00460093
0.00461982
0.00463781
0.0046549
0.00467107
0.00468632
0.00470065
0.00471405
0.00472652
0.00473806
0.00474867
0.00475833
0.00476705
0.00477482
0.00478163
0.00478751
0.00479245
0.00479642
0.00479943
0.00480149
0.00480261
0.00480277
0.00480198
0.00480025
0.00479758
0.00479398
0.00478945
0.004784
0.00477763
0.00477036
0.00476219
0.00475314
0.0047432
0.00473241
0.00472076
0.00470827
0.00469494
0.00468078
0.0046658
0.00465
0.00463337
0.0046159
0.00459759
0.00457844
0.00455848
0.00453773
0.00451623
0.00449401
0.00447109
0.00444752
0.00442332
0.00439853
0.00437316
0.00434725
0.00432083
0.00429391
0.00426653
0.00423872
0.00421049
0.00418188
0.00415292
0.00412363
0.00409403
0.00406417
0.00403407
0.00400375
0.00397325
0.00394261
0.00391186
0.00388102
0.00385014
0.00381923
0.00378831
0.00375733
0.00372617
0.00369452
0.00366187
0.0036278
1.48145e-05
0.000107445
0.000229297
0.000334504
0.000419004
0.000486455
0.000541215
0.000587053
0.000626981
0.000663309
0.000697759
0.000731574
0.000765624
0.000800492
0.000836547
0.000874008
0.000912983
0.000953503
0.00099555
0.00103907
0.00108399
0.00113023
0.00117768
0.00122624
0.00127583
0.00132633
0.00137765
0.00142971
0.00148242
0.00153569
0.00158946
0.00164365
0.0016982
0.00175305
0.00180816
0.00186346
0.00191892
0.0019745
0.00203016
0.00208588
0.00214161
0.00219734
0.00225304
0.00230868
0.00236425
0.00241972
0.00247508
0.0025303
0.00258537
0.00264026
0.00269495
0.00274943
0.00280367
0.00285766
0.00291136
0.00296476
0.00301782
0.00307054
0.00312287
0.0031748
0.00322629
0.00327732
0.00332787
0.00337791
0.00342742
0.00347636
0.00352472
0.00357247
0.00361959
0.00366607
0.00371189
0.003757
0.00380143
0.00384521
0.00388835
0.00393086
0.00397272
0.00401395
0.00405453
0.00409446
0.00413371
0.00417229
0.00421017
0.00424734
0.00428379
0.0043195
0.00435445
0.00438864
0.00442205
0.00445468
0.00448649
0.0045175
0.00454768
0.00457702
0.00460552
0.00463316
0.00465994
0.00468584
0.00471085
0.00473497
0.00475818
0.00478049
0.00480187
0.00482234
0.00484189
0.00486051
0.00487818
0.00489491
0.00491068
0.00492549
0.00493934
0.00495224
0.00496418
0.00497515
0.00498513
0.00499412
0.00500214
0.00500917
0.00501523
0.0050203
0.00502438
0.00502748
0.00502959
0.00503073
0.00503088
0.00503006
0.00502826
0.0050255
0.00502178
0.0050171
0.00501147
0.00500491
0.00499741
0.00498899
0.00497966
0.00496943
0.00495831
0.00494631
0.00493345
0.00491972
0.00490514
0.00488971
0.00487343
0.0048563
0.00483834
0.00481953
0.00479991
0.00477949
0.0047583
0.00473636
0.0047137
0.00469036
0.00466635
0.00464171
0.00461647
0.00459064
0.00456427
0.00453737
0.00450996
0.00448209
0.00445376
0.00442502
0.00439588
0.00436639
0.00433655
0.00430642
0.00427601
0.00424537
0.00421452
0.00418351
0.00415238
0.00412116
0.0040899
0.00405865
0.00402742
0.00399622
0.00396495
0.00393343
0.00390126
0.00386819
1.51456e-05
0.00010522
0.000228389
0.000337648
0.000427202
0.000499909
0.00055975
0.00061032
0.000654553
0.000694739
0.00073261
0.000769444
0.000806156
0.000843375
0.00088152
0.000920847
0.000961501
0.00100354
0.00104698
0.00109177
0.00113786
0.00118517
0.00123362
0.00128311
0.00133356
0.00138487
0.00143695
0.00148973
0.00154311
0.00159703
0.00165141
0.00170619
0.00176131
0.00181671
0.00187236
0.0019282
0.0019842
0.00204031
0.00209652
0.00215279
0.0022091
0.00226541
0.00232173
0.00237801
0.00243425
0.00249042
0.00254652
0.00260251
0.00265839
0.00271414
0.00276973
0.00282515
0.00288038
0.00293539
0.00299017
0.00304468
0.0030989
0.00315281
0.00320637
0.00325957
0.00331236
0.00336473
0.00341664
0.00346806
0.00351897
0.00356934
0.00361914
0.00366835
0.00371694
0.0037649
0.00381221
0.00385887
0.00390491
0.00395033
0.00399514
0.00403933
0.00408292
0.00412588
0.0041682
0.00420988
0.0042509
0.00429124
0.0043309
0.00436984
0.00440806
0.00444554
0.00448226
0.00451821
0.00455338
0.00458774
0.0046213
0.00465403
0.00468592
0.00471697
0.00474716
0.00477648
0.00480492
0.00483247
0.00485911
0.00488483
0.00490963
0.0049335
0.00495644
0.00497844
0.00499949
0.0050196
0.00503876
0.00505693
0.00507411
0.00509032
0.00510554
0.00511977
0.00513302
0.00514528
0.00515653
0.00516677
0.00517601
0.00518424
0.00519147
0.00519768
0.00520289
0.00520708
0.00521027
0.00521245
0.00521363
0.00521381
0.00521299
0.00521117
0.00520837
0.00520458
0.00519983
0.0051941
0.00518742
0.00517979
0.00517122
0.00516172
0.0051513
0.00513998
0.00512776
0.00511465
0.00510067
0.00508582
0.0050701
0.00505353
0.0050361
0.00501784
0.00499874
0.00497884
0.00495815
0.0049367
0.00491451
0.00489161
0.00486802
0.00484377
0.00481888
0.00479339
0.00476731
0.00474067
0.0047135
0.00468582
0.00465766
0.00462905
0.00460002
0.00457059
0.0045408
0.00451068
0.00448025
0.00444956
0.00441865
0.00438756
0.00435633
0.00432501
0.00429366
0.00426234
0.00423107
0.00419989
0.00416875
0.00413752
0.00410592
0.00407376
1.53663e-05
0.000102173
0.000225167
0.000337114
0.000430677
0.000507861
0.000572197
0.000627039
0.000675198
0.000718904
0.000759877
0.000799404
0.000838429
0.000877619
0.00091743
0.000958158
0.00099998
0.00104299
0.00108722
0.00113265
0.00117924
0.00122693
0.00127565
0.00132532
0.00137586
0.00142718
0.00147921
0.00153186
0.00158507
0.00163878
0.00169291
0.00174741
0.00180224
0.00185735
0.00191269
0.00196823
0.00202395
0.00207981
0.0021358
0.00219188
0.00224804
0.00230427
0.00236054
0.00241685
0.00247317
0.00252949
0.00258581
0.00264209
0.00269833
0.00275451
0.00281061
0.0028666
0.00292248
0.0029782
0.00303375
0.00308911
0.00314423
0.0031991
0.00325368
0.00330794
0.00336185
0.00341537
0.00346847
0.00352111
0.00357327
0.00362491
0.00367601
0.00372653
0.00377645
0.00382576
0.00387447
0.00392259
0.00397014