/*--------------------------------*- C++ -*----------------------------------*\
| =========                 |                                                 |
| \\      /  F ield         | OpenFOAM: The Open Source CFD Toolbox           |
|  \\    /   O peration     | Version:  2412                                  |
|   \\  /    A nd           | Website:  www.openfoam.com                      |
|    \\/     M anipulation  |                                                 |
\*---------------------------------------------------------------------------*/
FoamFile
{
    version     2.0;
    format      ascii;
    arch        "LSB;label=32;scalar=64";
    class       volScalarField;
    location    "0.17";
    object      p;
}
// * * * * * * * * * * * * * * * * * * * * * * * * * * * * * * * * * * * * * //

dimensions      [0 2 -2 0 0 0 0];

internalField   nonuniform List<scalar> 
12225
(
-10.3324
-9.74007
-9.07736
-8.52092
-8.01186
-7.55541
-7.15684
-6.80581
-6.49343
-6.21411
-5.96295
-5.73545
-5.52776
-5.33654
-5.15875
-4.99087
-4.83072
-4.66394
-10.7662
-9.79825
-9.11217
-8.5619
-8.05216
-7.59565
-7.19645
-6.84401
-6.53
-6.24898
-5.99609
-5.76686
-5.55746
-5.36456
-5.18509
-5.01566
-4.85347
-4.69523
-10.9466
-9.83252
-9.15391
-8.61276
-8.10255
-7.64692
-7.24785
-6.89436
-6.5788
-6.296
-6.04116
-5.80991
-5.59849
-5.40358
-5.22217
-5.05107
-4.88742
-4.72613
-10.9705
-9.84824
-9.17859
-8.64672
-8.1392
-7.68643
-7.28923
-6.9363
-6.62058
-6.33717
-6.08141
-5.84905
-5.63643
-5.44036
-5.25788
-5.08625
-4.9222
-4.76481
-10.9004
-9.84295
-9.17888
-8.6575
-8.15702
-7.70918
-7.31553
-6.9648
-6.65038
-6.36765
-6.11213
-5.87974
-5.66697
-5.47077
-5.28837
-5.11753
-4.95489
-4.80538
-10.7586
-9.80982
-9.1554
-8.64664
-8.1578
-7.71715
-7.32865
-6.98162
-6.66977
-6.38882
-6.13453
-5.90303
-5.69099
-5.49559
-5.31427
-5.14533
-4.98559
-4.84464
-10.5559
-9.74338
-9.10915
-8.61496
-8.14222
-7.71155
-7.32995
-6.98812
-6.68009
-6.40196
-6.14982
-5.92006
-5.70959
-5.51583
-5.33649
-5.17036
-5.01449
-4.88186
-10.303
-9.64105
-9.04098
-8.56301
-8.1102
-7.69275
-7.32001
-6.98496
-6.68206
-6.40783
-6.1588
-5.93165
-5.72357
-5.53225
-5.35572
-5.19315
-5.04181
-4.91709
-10.0106
-9.50252
-8.952
-8.49245
-8.06228
-7.66137
-7.29958
-6.97289
-6.67647
-6.40728
-6.16231
-5.93864
-5.73378
-5.54569
-5.3727
-5.2143
-5.06792
-4.95057
-9.68983
-9.32979
-8.8436
-8.40612
-8.00015
-7.61869
-7.26999
-6.95314
-6.66449
-6.40142
-6.16146
-5.94213
-5.74126
-5.55713
-5.38834
-5.23458
-5.09338
-4.98277
-9.35295
-9.12763
-8.7174
-8.30758
-7.92675
-7.56696
-7.23332
-6.92761
-6.6478
-6.39184
-6.15774
-5.9435
-5.74732
-5.56777
-5.40367
-5.25489
-5.11886
-5.01454
-9.04097
-8.92187
-8.58768
-8.20942
-7.85253
-7.51409
-7.19592
-6.90142
-6.63048
-6.38172
-6.15362
-5.9446
-5.75321
-5.57828
-5.4188
-5.27477
-5.14326
-5.04458
-8.74599
-8.70751
-8.44915
-8.10722
-7.77454
-7.4581
-7.15668
-6.8742
-6.6126
-6.3715
-6.14983
-5.9464
-5.7601
-5.59003
-5.43532
-5.29599
-5.16942
-5.0741
-8.43895
-8.46311
-8.28359
-7.98774
-7.68381
-7.39291
-7.11222
-6.84479
-6.59455
-6.36268
-6.14874
-5.952
-5.77174
-5.60731
-5.45804
-5.32394
-5.20272
-5.10994
-8.1419
-8.20891
-8.10106
-7.85708
-7.5856
-7.32229
-7.06555
-6.81648
-6.58006
-6.35922
-6.1545
-5.96564
-5.79231
-5.63417
-5.49078
-5.36217
-5.24622
-5.15559
-7.88357
-7.97691
-7.92671
-7.73378
-7.49563
-7.2587
-7.02573
-6.79619
-6.57491
-6.36627
-6.17185
-5.99187
-5.82628
-5.67499
-5.53773
-5.41458
-5.30363
-5.21456
-7.69606
-7.80416
-7.79544
-7.64662
-7.43986
-7.22631
-7.01387
-6.80174
-6.59412
-6.39626
-6.21082
-6.03854
-5.87958
-5.73404
-5.6017
-5.48257
-5.37504
-5.28511
-7.61966
-7.73199
-7.7445
-7.62287
-7.4379
-7.24099
-7.04318
-6.84395
-6.64688
-6.4574
-6.2788
-6.11211
-5.95755
-5.81512
-5.68474
-5.5662
-5.45846
-5.36284
-7.71924
-7.82627
-7.83261
-7.70597
-7.51777
-7.31905
-7.12044
-6.92122
-6.72482
-6.53644
-6.35913
-6.19369
-6.04012
-5.89822
-5.76766
-5.64774
-5.53821
-5.43591
-7.99568
-8.09011
-8.05669
-7.88514
-7.66359
-7.4409
-7.22254
-7.00723
-6.79893
-6.60218
-6.41884
-6.24897
-6.0921
-5.94767
-5.81497
-5.6929
-5.58123
-5.47428
-8.3892
-8.44732
-8.34495
-8.11054
-7.84622
-7.59129
-7.3452
-7.10745
-6.88241
-6.67319
-6.48024
-6.30286
-6.14018
-5.99127
-5.85514
-5.73057
-5.61713
-5.50886
-8.88968
-8.86942
-8.66122
-8.35145
-8.03943
-7.74546
-7.46581
-7.20235
-6.95856
-6.73522
-6.53133
-6.34549
-6.17635
-6.0225
-5.8826
-5.75524
-5.63963
-5.53007
-9.45376
-9.29819
-8.9543
-8.57144
-8.21483
-7.88134
-7.56937
-7.28277
-7.02224
-6.78604
-6.57211
-6.37853
-6.20338
-6.04485
-5.90129
-5.7711
-5.65323
-5.54259
-10.0182
-9.67222
-9.18913
-8.75135
-8.35743
-7.98793
-7.64852
-7.34288
-7.06812
-6.82076
-6.59816
-6.39789
-6.21754
-6.05493
-5.90814
-5.77542
-5.6555
-5.54397
-10.5222
-9.95376
-9.35811
-8.88631
-8.45974
-8.05928
-7.69848
-7.37803
-7.09193
-6.83579
-6.60652
-6.40115
-6.21687
-6.05119
-5.90199
-5.7674
-5.64597
-5.53396
-10.9238
-10.1314
-9.46487
-8.97274
-8.51764
-8.09373
-7.71803
-7.38699
-7.09273
-6.83045
-6.59661
-6.38781
-6.20093
-6.03328
-5.88259
-5.74685
-5.62454
-5.51249
-11.1951
-10.2149
-9.5151
-9.00842
-8.53206
-8.09329
-7.70807
-7.37007
-7.07065
-6.80465
-6.56818
-6.35752
-6.16934
-6.00081
-5.84954
-5.71345
-5.59095
-5.4794
-11.3023
-10.2303
-9.51576
-8.99269
-8.50431
-8.05798
-7.66718
-7.32538
-7.02362
-6.75626
-6.5191
-6.30825
-6.1202
-5.95202
-5.80125
-5.66574
-5.54384
-5.43349
-11.1697
-10.2005
-9.48073
-8.93506
-8.44176
-7.9931
-7.59996
-7.25731
-6.95589
-6.68942
-6.45349
-6.24408
-6.05758
-5.89097
-5.74175
-5.60776
-5.48725
-5.37846
-10.6385
-10.1082
-9.43815
-8.87815
-8.3831
-7.9342
-7.5406
-7.19858
-6.89849
-6.63358
-6.39927
-6.1915
-6.00663
-5.84159
-5.69385
-5.56126
-5.44197
-5.33416
-4.72236
-4.7221
-4.72325
-4.72552
-4.72825
-4.73109
-4.734
-4.7371
-4.74045
-4.74412
-4.74822
-4.75284
-4.75809
-4.76406
-4.77086
-4.77859
-4.78737
-4.79732
-4.80855
-4.82116
-4.83526
-4.85091
-4.86817
-4.88705
-4.90754
-4.92959
-4.95312
-4.97802
-5.00417
-5.03138
-5.05938
-5.08794
-5.11687
-5.14597
-5.17503
-5.20387
-5.23229
-5.26012
-5.28718
-5.31331
-5.33836
-5.36216
-5.38458
-5.40547
-5.42472
-5.44217
-5.45771
-5.47122
-5.48258
-5.49166
-5.49835
-5.50255
-5.50413
-5.503
-5.49904
-5.49216
-5.48227
-5.46926
-5.45305
-5.43356
-5.4107
-5.3844
-5.3546
-5.32123
-5.28424
-5.24358
-5.1992
-5.15107
-5.09917
-5.04348
-4.984
-4.92079
-4.85389
-4.78327
-4.70889
-4.63047
-4.5481
-4.46191
-4.37195
-4.2783
-4.181
-4.08011
-3.97567
-3.86774
-3.75639
-3.64169
-3.52371
-3.40253
-3.27823
-3.15091
-3.02065
-2.88755
-2.75172
-2.61325
-2.47227
-2.32889
-2.18321
-2.03537
-1.88548
-1.73367
-1.58007
-1.4248
-1.26801
-1.10983
-0.95039
-0.789835
-0.628304
-0.465939
-0.302882
-0.139276
0.024734
0.189004
0.35339
0.517748
0.681934
0.845804
1.00922
1.17203
1.33411
1.49532
1.65552
1.81457
1.97236
2.12876
2.28363
2.43687
2.58836
2.73798
2.88564
3.03124
3.17467
3.31585
3.45469
3.59112
3.72506
3.85645
3.98523
4.11135
4.23476
4.35542
4.47332
4.58844
4.70074
4.81022
4.9168
5.02041
5.12106
5.21878
5.3136
5.40554
5.49464
5.5809
5.66438
5.74508
5.82306
5.89833
5.97094
6.04092
6.10832
6.17317
6.23551
6.29539
6.35283
6.4079
6.46063
6.51106
6.55925
6.60524
6.64909
6.69089
6.73073
6.76874
6.80512
6.84016
6.87436
6.90857
6.94471
6.98598
7.04432
7.12021
-4.72175
-4.72224
-4.72349
-4.72542
-4.72743
-4.72917
-4.73058
-4.73184
-4.73329
-4.73516
-4.7376
-4.74069
-4.74447
-4.74903
-4.75446
-4.76089
-4.76846
-4.77731
-4.78759
-4.79942
-4.81292
-4.82816
-4.8452
-4.86403
-4.88463
-4.90691
-4.93075
-4.95601
-4.9825
-5.01001
-5.03832
-5.06718
-5.0964
-5.12575
-5.15504
-5.18408
-5.21268
-5.24066
-5.26787
-5.29416
-5.31935
-5.34333
-5.36594
-5.38706
-5.40656
-5.42431
-5.44018
-5.45407
-5.46584
-5.47539
-5.48259
-5.48734
-5.48952
-5.48904
-5.48577
-5.47963
-5.47052
-5.45833
-5.44299
-5.4244
-5.40248
-5.37717
-5.34839
-5.31609
-5.2802
-5.24067
-5.19746
-5.15055
-5.09989
-5.04546
-4.98723
-4.92517
-4.85926
-4.78942
-4.7155
-4.63786
-4.55656
-4.47157
-4.38287
-4.29049
-4.19447
-4.09486
-3.99169
-3.88503
-3.77494
-3.66148
-3.54473
-3.42476
-3.30166
-3.17551
-3.0464
-2.91444
-2.77972
-2.64235
-2.50243
-2.36008
-2.21541
-2.06854
-1.9196
-1.7687
-1.61599
-1.46158
-1.3056
-1.14821
-0.989517
-0.829676
-0.668823
-0.507097
-0.344642
-0.181601
-0.0181158
0.145668
0.309608
0.47356
0.637379
0.800924
0.964053
1.12663
1.2885
1.44955
1.60962
1.7686
1.92635
2.08274
2.23765
2.39097
2.54258
2.69236
2.84021
2.98603
3.12973
3.27121
3.41038
3.54718
3.68152
3.81334
3.94258
4.06919
4.19312
4.31433
4.4328
4.54851
4.66144
4.77154
4.87875
4.98302
5.08437
5.1828
5.27833
5.371
5.46082
5.54782
5.63202
5.71346
5.79216
5.86816
5.9415
6.0122
6.0803
6.14585
6.20889
6.26944
6.32757
6.3833
6.43667
6.48775
6.53656
6.58318
6.62766
6.67009
6.71056
6.74923
6.7863
6.8221
6.85717
6.89237
6.92965
6.97115
7.02759
7.09442
-4.71456
-4.71696
-4.71952
-4.72191
-4.72365
-4.72472
-4.72537
-4.72593
-4.72669
-4.72787
-4.72963
-4.73207
-4.73533
-4.73952
-4.74478
-4.75124
-4.75904
-4.76831
-4.77915
-4.79166
-4.80588
-4.82183
-4.83951
-4.85887
-4.87983
-4.90227
-4.92607
-4.95107
-4.9771
-5.00398
-5.03152
-5.05951
-5.08779
-5.11617
-5.14448
-5.17254
-5.20019
-5.22727
-5.25364
-5.27915
-5.30365
-5.32701
-5.3491
-5.36978
-5.38892
-5.40641
-5.42212
-5.43592
-5.4477
-5.45734
-5.46472
-5.46972
-5.47225
-5.47218
-5.46941
-5.46383
-5.45536
-5.44388
-5.42931
-5.41156
-5.39054
-5.36619
-5.33843
-5.30719
-5.27241
-5.23405
-5.19205
-5.14637
-5.09698
-5.04385
-4.98695
-4.92624
-4.86169
-4.79332
-4.72107
-4.64503
-4.56526
-4.48177
-4.39459
-4.30373
-4.20924
-4.11116
-4.00952
-3.90439
-3.79582
-3.68387
-3.56862
-3.45014
-3.32851
-3.20382
-3.07616
-2.94561
-2.81229
-2.67628
-2.53771
-2.39667
-2.25329
-2.10768
-1.95996
-1.81026
-1.6587
-1.5054
-1.35051
-1.19415
-1.03646
-0.877577
-0.717638
-0.556783
-0.395154
-0.232893
-0.0701419
0.0929559
0.256257
0.419619
0.582899
0.745954
0.908643
1.07083
1.23237
1.39312
1.55297
1.71176
1.86938
2.02569
2.18057
2.33391
2.48559
2.63549
2.78351
2.92955
3.07352
3.21531
3.35484
3.49204
3.62682
3.75913
3.8889
4.01607
4.14059
4.26243
4.38155
4.49792
4.61151
4.72229
4.83024
4.93535
5.03758
5.13693
5.2334
5.32701
5.41777
5.50572
5.59088
5.67326
5.75291
5.82985
5.90411
5.97574
6.04476
6.11121
6.17513
6.23657
6.29555
6.35212
6.40633
6.45822
6.50784
6.55525
6.60052
6.64373
6.68499
6.72447
6.76238
6.79907
6.83511
6.87133
6.9096
6.9512
7.00541
7.05909
-4.70127
-4.70587
-4.71073
-4.71462
-4.71716
-4.71872
-4.71977
-4.72069
-4.72177
-4.72326
-4.72537
-4.72825
-4.73204
-4.73689
-4.74292
-4.75024
-4.75898
-4.76922
-4.78102
-4.79441
-4.80943
-4.82603
-4.84419
-4.86383
-4.88486
-4.90718
-4.93066
-4.95517
-4.98056
-5.00668
-5.03335
-5.06043
-5.08776
-5.11518
-5.14252
-5.16964
-5.1964
-5.22263
-5.24821
-5.27299
-5.29684
-5.31961
-5.34119
-5.36145
-5.38024
-5.39746
-5.41296
-5.42664
-5.43837
-5.44803
-5.4555
-5.46067
-5.46342
-5.46364
-5.46121
-5.45605
-5.44804
-5.43708
-5.42308
-5.40595
-5.38561
-5.36197
-5.33496
-5.30452
-5.27058
-5.23308
-5.19197
-5.14722
-5.09877
-5.04659
-4.99066
-4.93095
-4.86745
-4.80011
-4.72901
-4.65415
-4.57556
-4.49326
-4.40728
-4.31763
-4.22435
-4.12748
-4.02706
-3.92314
-3.81579
-3.70505
-3.59101
-3.47373
-3.35329
-3.22978
-3.10328
-2.97388
-2.84169
-2.70681
-2.56933
-2.42938
-2.28705
-2.14248
-1.99577
-1.84704
-1.69644
-1.54407
-1.39007
-1.23458
-1.07773
-0.919643
-0.760471
-0.600348
-0.439415
-0.277813
-0.115683
0.0468319
0.20959
0.372448
0.535265
0.697898
0.860207
1.02205
1.18329
1.3438
1.50343
1.66206
1.81955
1.97578
2.13062
2.28397
2.43569
2.58568
2.73383
2.88004
3.02421
3.16625
3.30607
3.4436
3.57874
3.71145
3.84164
3.96927
4.09429
4.21666
4.33633
4.45327
4.56744
4.6788
4.78735
4.89308
4.99599
5.09604
5.19323
5.28759
5.37911
5.46782
5.55375
5.6369
5.71732
5.79504
5.87007
5.94246
6.01224
6.07944
6.14411
6.20628
6.26599
6.32328
6.37819
6.43077
6.48108
6.52916
6.57509
6.61896
6.66088
6.70101
6.73959
6.77694
6.81361
6.85034
6.8887
6.92916
6.97902
7.02026
-4.68533
-4.69226
-4.7
-4.70607
-4.71012
-4.71288
-4.71497
-4.71684
-4.71885
-4.72129
-4.72437
-4.72828
-4.73317
-4.73917
-4.74638
-4.75491
-4.76482
-4.77617
-4.78899
-4.8033
-4.81908
-4.83628
-4.85487
-4.87476
-4.89587
-4.91809
-4.94132
-4.96543
-4.99029
-5.01577
-5.04174
-5.06805
-5.09457
-5.12115
-5.14765
-5.17395
-5.19989
-5.22536
-5.2502
-5.27429
-5.29751
-5.31971
-5.34077
-5.36057
-5.37897
-5.39586
-5.4111
-5.42457
-5.43615
-5.44572
-5.45316
-5.45834
-5.46116
-5.46151
-5.45926
-5.45431
-5.44656
-5.43591
-5.42226
-5.40551
-5.38559
-5.36241
-5.3359
-5.30598
-5.27259
-5.23567
-5.19517
-5.15104
-5.10324
-5.05174
-4.99651
-4.93752
-4.87477
-4.80825
-4.73796
-4.66394
-4.58619
-4.50474
-4.4196
-4.33081
-4.23839
-4.14238
-4.04282
-3.93978
-3.83329
-3.72342
-3.61024
-3.49382
-3.37424
-3.25158
-3.12592
-2.99737
-2.866
-2.73193
-2.59526
-2.45609
-2.31455
-2.17073
-2.02476
-1.87677
-1.72687
-1.57519
-1.42186
-1.26701
-1.11078
-0.953297
-0.7947
-0.635127
-0.474718
-0.313613
-0.151953
0.0101208
0.172466
0.334941
0.497404
0.659714
0.82173
0.983314
1.14433
1.30463
1.4641
1.62259
1.77998
1.93614
2.09095
2.24429
2.39603
2.54608
2.69432
2.84065
2.98498
3.1272
3.26723
3.40499
3.5404
3.67339
3.80391
3.93189
4.05728
4.18004
4.30012
4.41747
4.53206
4.64384
4.75281
4.85898
4.96234
5.06287
5.16057
5.25544
5.3475
5.43676
5.52323
5.60695
5.68794
5.76622
5.84182
5.91478
5.98513
6.0529
6.11813
6.18085
6.24111
6.29895
6.3544
6.40752
6.45834
6.50694
6.55337
6.59773
6.64014
6.68073
6.71973
6.75746
6.79437
6.83106
6.86874
6.90717
6.95218
6.98286
-4.67111
-4.68002
-4.69038
-4.69869
-4.7045
-4.70874
-4.71219
-4.71536
-4.71864
-4.72234
-4.72671
-4.73192
-4.73813
-4.74545
-4.75397
-4.76375
-4.77486
-4.78731
-4.80112
-4.81627
-4.83274
-4.85049
-4.86945
-4.88955
-4.91071
-4.93284
-4.95584
-4.9796
-5.00401
-5.02895
-5.05431
-5.07996
-5.10577
-5.13164
-5.15742
-5.18299
-5.20823
-5.23302
-5.25721
-5.28069
-5.30333
-5.32501
-5.34559
-5.36496
-5.38298
-5.39953
-5.41448
-5.42771
-5.4391
-5.44853
-5.45586
-5.46099
-5.46379
-5.46415
-5.46195
-5.4571
-5.44947
-5.43897
-5.42551
-5.40898
-5.3893
-5.36639
-5.34016
-5.31056
-5.27751
-5.24095
-5.20083
-5.1571
-5.10973
-5.05868
-5.00391
-4.94542
-4.88319
-4.81721
-4.74749
-4.67403
-4.59686
-4.51598
-4.43143
-4.34322
-4.25139
-4.15598
-4.05703
-3.95458
-3.8487
-3.73944
-3.62687
-3.51106
-3.39209
-3.27003
-3.14498
-3.01703
-2.88626
-2.75279
-2.6167
-2.47812
-2.33714
-2.19388
-2.04847
-1.90102
-1.75165
-1.60048
-1.44766
-1.2933
-1.13754
-0.980517
-0.822361
-0.663212
-0.503208
-0.342489
-0.181195
-0.0194682
0.142551
0.304722
0.466903
0.628953
0.790731
0.9521
1.11292
1.27306
1.43238
1.59075
1.74805
1.90414
2.0589
2.21221
2.36396
2.51404
2.66233
2.80873
2.95315
3.09549
3.23566
3.37359
3.50919
3.6424
3.77314
3.90137
4.02702
4.15005
4.27042
4.38806
4.50295
4.61503
4.72432
4.83081
4.9345
5.03538
5.13345
5.2287
5.32116
5.41082
5.49772
5.58186
5.66327
5.74199
5.81803
5.89142
5.96221
6.03043
6.0961
6.15926
6.21996
6.27822
6.3341
6.38763
6.43887
6.48787
6.53469
6.57942
6.62217
6.66307
6.70232
6.74019
6.77705
6.81333
6.84989
6.88594
6.92644
6.94829
-4.66214
-4.67211
-4.68428
-4.69443
-4.70186
-4.70755
-4.71238
-4.71689
-4.72149
-4.72651
-4.73219
-4.7387
-4.7462
-4.75478
-4.7645
-4.77544
-4.7876
-4.80101
-4.81565
-4.83152
-4.84856
-4.86674
-4.886
-4.90627
-4.92748
-4.94953
-4.97234
-4.99583
-5.01988
-5.04439
-5.06927
-5.09439
-5.11966
-5.14495
-5.17015
-5.19514
-5.21981
-5.24404
-5.2677
-5.29067
-5.31283
-5.33406
-5.35423
-5.37321
-5.39089
-5.40713
-5.42181
-5.43481
-5.44599
-5.45524
-5.46243
-5.46744
-5.47016
-5.47046
-5.46823
-5.46337
-5.45576
-5.44529
-5.43188
-5.41543
-5.39585
-5.37305
-5.34695
-5.3175
-5.28461
-5.24823
-5.20831
-5.1648
-5.11767
-5.06686
-5.01237
-4.95417
-4.89225
-4.8266
-4.75722
-4.68411
-4.6073
-4.52679
-4.4426
-4.35477
-4.26332
-4.1683
-4.06974
-3.96769
-3.86222
-3.75337
-3.64121
-3.52582
-3.40727
-3.28564
-3.16102
-3.03349
-2.90315
-2.7701
-2.63444
-2.49628
-2.35573
-2.21289
-2.06789
-1.92085
-1.77188
-1.62111
-1.46867
-1.31469
-1.1593
-1.00264
-0.844831
-0.686018
-0.526339
-0.365932
-0.204937
-0.0434941
0.118255
0.280172
0.442113
0.60394
0.765511
0.92669
1.08734
1.24732
1.40651
1.56476
1.72195
1.87796
2.03266
2.18592
2.33765
2.48771
2.63601
2.78244
2.9269
3.06931
3.20957
3.34759
3.48332
3.61666
3.74755
3.87594
4.00177
4.12499
4.24554
4.36339
4.47848
4.5908
4.70032
4.80705
4.91099
5.01214
5.11048
5.20603
5.29878
5.38876
5.47597
5.56044
5.64219
5.72125
5.79763
5.87138
5.94252
6.01109
6.07711
6.14063
6.20168
6.26029
6.31651
6.37038
6.42195
6.47126
6.51838
6.56339
6.60638
6.64747
6.68683
6.72467
6.76127
6.79689
6.8321
6.86569
6.90218
6.91664
-4.65939
-4.66969
-4.68275
-4.69411
-4.70278
-4.70971
-4.71574
-4.72146
-4.72725
-4.73345
-4.74029
-4.74795
-4.75655
-4.76618
-4.77692
-4.78879
-4.80181
-4.81598
-4.83129
-4.84771
-4.86521
-4.88373
-4.90323
-4.92363
-4.94487
-4.96688
-4.98956
-5.01284
-5.03663
-5.06084
-5.08535
-5.11009
-5.13494
-5.15981
-5.18457
-5.20913
-5.23336
-5.25716
-5.28041
-5.30298
-5.32476
-5.34563
-5.36546
-5.38413
-5.40152
-5.41749
-5.43192
-5.44469
-5.45567
-5.46473
-5.47176
-5.47662
-5.4792
-5.47939
-5.47706
-5.4721
-5.46442
-5.45389
-5.44043
-5.42394
-5.40433
-5.38151
-5.35542
-5.32597
-5.2931
-5.25676
-5.21689
-5.17344
-5.12638
-5.07567
-5.02128
-4.96321
-4.90143
-4.83593
-4.76672
-4.69379
-4.61716
-4.53684
-4.45285
-4.36523
-4.274
-4.1792
-4.08087
-3.97906
-3.87383
-3.76523
-3.65334
-3.53822
-3.41994
-3.29859
-3.17426
-3.04703
-2.91699
-2.78424
-2.64889
-2.51103
-2.37079
-2.22826
-2.08357
-1.93683
-1.78817
-1.63771
-1.48557
-1.33189
-1.17679
-1.02042
-0.862889
-0.704351
-0.544938
-0.38479
-0.224045
-0.0628442
0.0986739
0.260369
0.422101
0.583728
0.745112
0.906115
1.0666
1.22643
1.38548
1.54361
1.70069
1.8566
2.01121
2.1644
2.31607
2.46609
2.61437
2.76079
2.90526
3.04768
3.18797
3.32604
3.46182
3.59523
3.72621
3.8547
3.98063
4.10396
4.22464
4.34262
4.45786
4.57033
4.68002
4.78693
4.89106
4.99239
5.09094
5.1867
5.27968
5.36989
5.45735
5.54207
5.62408
5.7034
5.78006
5.85408
5.9255
5.99435
6.06066
6.12446
6.18579
6.24469
6.30119
6.35533
6.40716
6.45672
6.50407
6.54927
6.59242
6.6336
6.67295
6.71063
6.74682
6.78162
6.81536
6.84654
6.87948
6.88776
-4.6628
-4.67278
-4.68589
-4.69776
-4.70721
-4.715
-4.72195
-4.72861
-4.73537
-4.74252
-4.75028
-4.75884
-4.76831
-4.77876
-4.79027
-4.80284
-4.8165
-4.83124
-4.84704
-4.86388
-4.88171
-4.90049
-4.92016
-4.94067
-4.96195
-4.98393
-5.00654
-5.02969
-5.0533
-5.07729
-5.10157
-5.12605
-5.15062
-5.17518
-5.19964
-5.22389
-5.24782
-5.27131
-5.29426
-5.31654
-5.33804
-5.35864
-5.37821
-5.39663
-5.41378
-5.42952
-5.44374
-5.4563
-5.46707
-5.47594
-5.48278
-5.48747
-5.48988
-5.4899
-5.48741
-5.4823
-5.47446
-5.46379
-5.45019
-5.43356
-5.41382
-5.39088
-5.36467
-5.33511
-5.30215
-5.26572
-5.22577
-5.18225
-5.13514
-5.08439
-5.02998
-4.9719
-4.91012
-4.84465
-4.77546
-4.70257
-4.62599
-4.54573
-4.46181
-4.37426
-4.28311
-4.1884
-4.09018
-3.98849
-3.88338
-3.77493
-3.66318
-3.54822
-3.43011
-3.30894
-3.1848
-3.05776
-2.92792
-2.79539
-2.66025
-2.52262
-2.3826
-2.24031
-2.09585
-1.94935
-1.80093
-1.65071
-1.49882
-1.34538
-1.19052
-1.03438
-0.877089
-0.718783
-0.559599
-0.399674
-0.239149
-0.0781617
0.0831486
0.244643
0.40618
0.567621
0.728827
0.88966
1.04998
1.20966
1.36856
1.52655
1.68351
1.8393
1.99381
2.14691
2.2985
2.44845
2.59667
2.74304
2.88747
3.02987
3.17014
3.30821
3.444
3.57743
3.70844
3.83697
3.96295
4.08633
4.20708
4.32513
4.44046
4.55303
4.66283
4.76985
4.8741
4.97557
5.07426
5.17018
5.26332
5.3537
5.44134
5.52625
5.60846
5.68798
5.76485
5.83909
5.91073
5.9798
6.04634
6.11037
6.17193
6.23105
6.28778
6.34214
6.39418
6.44393
6.49145
6.53679
6.58002
6.62122
6.66047
6.69787
6.73353
6.76741
6.79965
6.82853
6.85835
6.86148
-4.67141
-4.6806
-4.69306
-4.7048
-4.7145
-4.72276
-4.7303
-4.73761
-4.74504
-4.75287
-4.76131
-4.77051
-4.78059
-4.79163
-4.80367
-4.81673
-4.83083
-4.84596
-4.8621
-4.87922
-4.89728
-4.91624
-4.93604
-4.95663
-4.97795
-4.99993
-5.0225
-5.04558
-5.0691
-5.09297
-5.11711
-5.14142
-5.16582
-5.19021
-5.21449
-5.23854
-5.26228
-5.28557
-5.30833
-5.33041
-5.35172
-5.37212
-5.3915
-5.40972
-5.42667
-5.44222
-5.45624
-5.4686
-5.47918
-5.48785
-5.49449
-5.49896
-5.50116
-5.50097
-5.49826
-5.49293
-5.48488
-5.47398
-5.46016
-5.44332
-5.42336
-5.40021
-5.37379
-5.34402
-5.31086
-5.27424
-5.23411
-5.19043
-5.14316
-5.09227
-5.03774
-4.97955
-4.91768
-4.85211
-4.78285
-4.70989
-4.63325
-4.55294
-4.46899
-4.38142
-4.29027
-4.19556
-4.09736
-3.99569
-3.89063
-3.78223
-3.67056
-3.55568
-3.43767
-3.31661
-3.19258
-3.06567
-2.93598
-2.80359
-2.66862
-2.53116
-2.39132
-2.2492
-2.10494
-1.95863
-1.81041
-1.66039
-1.5087
-1.35547
-1.20083
-1.0449
-0.887816
-0.72972
-0.570745
-0.411028
-0.250707
-0.0899217
0.0711896
0.232487
0.393831
0.555084
0.716107
0.876763
1.03692
1.19643
1.35517
1.51302
1.66983
1.82549
1.97987
2.13285
2.28433
2.43418
2.5823
2.72858
2.87294
3.01527
3.15549
3.29351
3.42926
3.56267
3.69366
3.82217
3.94815
4.07154
4.1923
4.31037
4.42574
4.53836
4.64822
4.75531
4.85963
4.96119
5.05997
5.15598
5.24924
5.33974
5.42751
5.51256
5.59491
5.67459
5.75162
5.82602
5.89784
5.96709
6.0338
6.09802
6.15977
6.21908
6.27599
6.33052
6.38272
6.43262
6.48027
6.52569
6.56895
6.61009
6.64917
6.68623
6.72128
6.75419
6.78495
6.81166
6.83874
6.83758
-4.68376
-4.69183
-4.70314
-4.71422
-4.72372
-4.73206
-4.73985
-4.74749
-4.75532
-4.76358
-4.77244
-4.78206
-4.79254
-4.80394
-4.81631
-4.82969
-4.84406
-4.85943
-4.87578
-4.89307
-4.91128
-4.93035
-4.95024
-4.9709
-4.99226
-5.01426
-5.03682
-5.05989
-5.08338
-5.1072
-5.13129
-5.15554
-5.17986
-5.20417
-5.22835
-5.25231
-5.27595
-5.29914
-5.32177
-5.34374
-5.36491
-5.38517
-5.4044
-5.42247
-5.43925
-5.45462
-5.46845
-5.48062
-5.49098
-5.49943
-5.50583
-5.51006
-5.51201
-5.51155
-5.50857
-5.50296
-5.49462
-5.48344
-5.46933
-5.45219
-5.43193
-5.40849
-5.38178
-5.35174
-5.3183
-5.28141
-5.24103
-5.1971
-5.14961
-5.09851
-5.04378
-4.9854
-4.92335
-4.85762
-4.7882
-4.7151
-4.63834
-4.55792
-4.47386
-4.38621
-4.29498
-4.20023
-4.10198
-4.0003
-3.89523
-3.78683
-3.67518
-3.56034
-3.44239
-3.32139
-3.19745
-3.07063
-2.94105
-2.80879
-2.67394
-2.53662
-2.39693
-2.25498
-2.11089
-1.96476
-1.81672
-1.66689
-1.51539
-1.36235
-1.20791
-1.05218
-0.895308
-0.737421
-0.578655
-0.419148
-0.259036
-0.0984572
0.0624485
0.223542
0.384684
0.545738
0.706566
0.867031
1.027
1.18633
1.34489
1.50256
1.6592
1.8147
1.96892
2.12176
2.27309
2.4228
2.57079
2.71696
2.8612
3.00342
3.14355
3.28148
3.41715
3.55048
3.6814
3.80986
3.93579
4.05914
4.17986
4.29792
4.41327
4.52589
4.63577
4.74288
4.84724
4.94883
5.04766
5.14373
5.23705
5.32763
5.41549
5.50063
5.58309
5.66288
5.74003
5.81456
5.88651
5.9559
6.02277
6.08714
6.14903
6.2085
6.26555
6.32023
6.37256
6.42258
6.4703
6.51577
6.55901
6.60005
6.63891
6.67556
6.70997
6.74188
6.77119
6.7959
6.82057
6.81585
-4.69825
-4.70503
-4.71484
-4.72484
-4.73376
-4.74185
-4.74958
-4.7573
-4.76528
-4.77373
-4.7828
-4.79264
-4.80332
-4.81492
-4.82748
-4.84101
-4.85553
-4.87102
-4.88748
-4.90487
-4.92316
-4.94231
-4.96226
-4.98297
-5.00437
-5.02641
-5.04901
-5.0721
-5.09561
-5.11945
-5.14354
-5.16779
-5.19211
-5.21641
-5.24057
-5.2645
-5.2881
-5.31123
-5.3338
-5.35569
-5.37676
-5.39691
-5.41601
-5.43393
-5.45055
-5.46573
-5.47935
-5.49129
-5.50141
-5.50959
-5.51572
-5.51965
-5.52129
-5.52051
-5.5172
-5.51126
-5.50257
-5.49103
-5.47656
-5.45907
-5.43846
-5.41466
-5.3876
-5.35722
-5.32345
-5.28624
-5.24555
-5.20133
-5.15356
-5.1022
-5.04723
-4.98862
-4.92634
-4.8604
-4.79078
-4.7175
-4.64057
-4.56
-4.47581
-4.38804
-4.29671
-4.20187
-4.10356
-4.00183
-3.89674
-3.78834
-3.67669
-3.56188
-3.44396
-3.32303
-3.19916
-3.07243
-2.94295
-2.8108
-2.67609
-2.53891
-2.39937
-2.25758
-2.11366
-1.96771
-1.81986
-1.67023
-1.51893
-1.3661
-1.21187
-1.05635
-0.899699
-0.742033
-0.58349
-0.424207
-0.264319
-0.103966
0.0567149
0.217584
0.378502
0.539334
0.699941
0.860187
1.01994
1.17905
1.33741
1.49487
1.65132
1.80661
1.96065
2.11329
2.26444
2.41398
2.5618
2.7078
2.85189
2.99397
3.13395
3.27175
3.40729
3.5405
3.67132
3.79967
3.92551
4.04877
4.16942
4.28742
4.40272
4.5153
4.62514
4.73224
4.83659
4.93818
5.03702
5.13311
5.22646
5.31708
5.40499
5.49019
5.57272
5.65259
5.72982
5.80445
5.87651
5.94601
6.01299
6.07748
6.1395
6.19909
6.25627
6.31106
6.3635
6.4136
6.46138
6.50686
6.55005
6.59095
6.62954
6.66576
6.69949
6.73042
6.75835
6.78124
6.80376
6.7961
-4.7133
-4.7187
-4.72684
-4.73548
-4.74353
-4.7511
-4.75852
-4.7661
-4.77402
-4.78248
-4.7916
-4.80149
-4.81224
-4.82391
-4.83653
-4.85012
-4.86469
-4.88023
-4.89673
-4.91417
-4.9325
-4.95169
-4.97168
-4.99243
-5.01388
-5.03597
-5.05862
-5.08176
-5.10532
-5.12921
-5.15334
-5.17764
-5.20199
-5.22631
-5.25048
-5.27441
-5.29798
-5.32108
-5.34359
-5.36539
-5.38636
-5.40638
-5.42532
-5.44306
-5.45947
-5.47443
-5.48779
-5.49945
-5.50927
-5.51714
-5.52292
-5.52651
-5.52777
-5.52661
-5.52291
-5.51656
-5.50747
-5.49553
-5.48065
-5.46274
-5.44173
-5.41754
-5.3901
-5.35934
-5.32521
-5.28765
-5.24663
-5.20211
-5.15405
-5.10241
-5.04717
-4.9883
-4.92578
-4.85961
-4.78978
-4.71631
-4.6392
-4.55848
-4.47415
-4.38626
-4.29484
-4.19993
-4.10156
-3.9998
-3.89469
-3.78629
-3.67467
-3.5599
-3.44205
-3.32119
-3.19741
-3.0708
-2.94144
-2.80943
-2.67487
-2.53785
-2.39849
-2.25689
-2.11316
-1.96742
-1.81978
-1.67037
-1.5193
-1.3667
-1.2127
-1.05743
-0.901025
-0.743609
-0.58532
-0.426291
-0.266661
-0.106566
0.0538563
0.214466
0.375127
0.5357
0.696051
0.856041
1.01554
1.1744
1.33251
1.48973
1.64593
1.80099
1.95479
2.10721
2.25813
2.40745
2.55506
2.70086
2.84475
2.98663
3.12643
3.26405
3.39942
3.53247
3.66313
3.79134
3.91704
4.04018
4.16071
4.2786
4.39381
4.50631
4.61609
4.72313
4.82743
4.92899
5.0278
5.12388
5.21722
5.30785
5.39577
5.481
5.56357
5.64349
5.72078
5.79548
5.86762
5.9372
6.00428
6.06887
6.13099
6.19068
6.24796
6.30285
6.35537
6.40553
6.45335
6.49882
6.54194
6.58267
6.62097
6.65674
6.68979
6.71976
6.7464
6.76761
6.78823
6.77816
-4.72749
-4.73155
-4.73794
-4.74506
-4.75204
-4.75889
-4.76583
-4.77308
-4.78079
-4.78912
-4.79815
-4.808
-4.81872
-4.83036
-4.84297
-4.85655
-4.87111
-4.88665
-4.90315
-4.92059
-4.93893
-4.95813
-4.97815
-4.99893
-5.02042
-5.04254
-5.06523
-5.08842
-5.11202
-5.13596
-5.16013
-5.18445
-5.20882
-5.23314
-5.2573
-5.28119
-5.3047
-5.32771
-5.35011
-5.37178
-5.39258
-5.41241
-5.43113
-5.44861
-5.46474
-5.47939
-5.49242
-5.50373
-5.51317
-5.52065
-5.52602
-5.52918
-5.53002
-5.52841
-5.52427
-5.51747
-5.50793
-5.49554
-5.48022
-5.46189
-5.44046
-5.41586
-5.38802
-5.35689
-5.3224
-5.28451
-5.24318
-5.19837
-5.15003
-5.09813
-5.04263
-4.98351
-4.92077
-4.85439
-4.78438
-4.71074
-4.63349
-4.55264
-4.46822
-4.38025
-4.28877
-4.19382
-4.09544
-3.99368
-3.8886
-3.78025
-3.6687
-3.55401
-3.43626
-3.31552
-3.19188
-3.06542
-2.93623
-2.8044
-2.67004
-2.53323
-2.39409
-2.25272
-2.10923
-1.96374
-1.81636
-1.66721
-1.51641
-1.3641
-1.21038
-1.0554
-0.899283
-0.742162
-0.58417
-0.425442
-0.266114
-0.106322
0.0537952
0.214101
0.374456
0.534726
0.694773
0.854461
1.01366
1.17223
1.33004
1.48696
1.64287
1.79765
1.95117
2.10331
2.25396
2.40302
2.55037
2.69591
2.83955
2.98119
3.12076
3.25816
3.39331
3.52615
3.65661
3.78463
3.91015
4.03313
4.1535
4.27124
4.38632
4.4987
4.60838
4.71532
4.81954
4.92103
5.01979
5.11582
5.20913
5.29973
5.38764
5.47288
5.55545
5.6354
5.71273
5.78748
5.85967
5.92932
5.99647
6.06114
6.12336
6.18314
6.2405
6.29547
6.34806
6.39827
6.44611
6.49155
6.53458
6.57513
6.61313
6.64844
6.68083
6.70988
6.7353
6.75501
6.7739
6.76189
-4.73963
-4.74247
-4.74713
-4.75268
-4.75847
-4.76446
-4.77079
-4.77759
-4.78499
-4.79308
-4.80195
-4.81167
-4.82229
-4.83386
-4.8464
-4.85993
-4.87444
-4.88993
-4.90639
-4.92379
-4.9421
-4.96127
-4.98127
-5.00203
-5.0235
-5.04561
-5.06829
-5.09146
-5.11505
-5.13895
-5.16309
-5.18735
-5.21165
-5.23588
-5.25993
-5.28368
-5.30702
-5.32985
-5.35202
-5.37344
-5.39397
-5.41349
-5.43187
-5.449
-5.46475
-5.47899
-5.49161
-5.50248
-5.51147
-5.51848
-5.52339
-5.52607
-5.52643
-5.52435
-5.51973
-5.51247
-5.50247
-5.48963
-5.47388
-5.45513
-5.4333
-5.40832
-5.38013
-5.34866
-5.31386
-5.27569
-5.2341
-5.18905
-5.14047
-5.08834
-5.03263
-4.97332
-4.91041
-4.84388
-4.77375
-4.7
-4.62267
-4.54176
-4.4573
-4.36932
-4.27786
-4.18294
-4.08462
-3.98294
-3.87795
-3.76972
-3.65831
-3.54378
-3.42621
-3.30566
-3.18223
-3.05599
-2.92704
-2.79546
-2.66136
-2.52483
-2.38597
-2.2449
-2.10172
-1.95654
-1.80948
-1.66066
-1.51019
-1.35822
-1.20484
-1.05021
-0.894446
-0.737678
-0.580043
-0.421674
-0.262706
-0.103275
0.0564803
0.216424
0.376419
0.536328
0.696015
0.855345
1.01418
1.1724
1.32986
1.48644
1.64201
1.79644
1.94962
2.10144
2.25177
2.4005
2.54754
2.69278
2.83612
2.97748
3.11676
3.25388
3.38877
3.52136
3.65158
3.77937
3.90466
4.02742
4.1476
4.26516
4.38007
4.49229
4.60182
4.70864
4.81275
4.91414
5.0128
5.10876
5.20201
5.29256
5.38044
5.46565
5.54822
5.62817
5.70552
5.78029
5.85252
5.92223
5.98944
6.05418
6.11646
6.17632
6.23377
6.28881
6.34146
6.39171
6.43956
6.48496
6.52789
6.56827
6.60597
6.64082
6.67256
6.70075
6.72505
6.74339
6.76072
6.74719
-4.74928
-4.75101
-4.75405
-4.75798
-4.7625
-4.76753
-4.77313
-4.77939
-4.78637
-4.79415
-4.80278
-4.81231
-4.82277
-4.8342
-4.84661
-4.86001
-4.87439
-4.88975
-4.90607
-4.92333
-4.94149
-4.96051
-4.98035
-5.00095
-5.02226
-5.0442
-5.06671
-5.0897
-5.11309
-5.1368
-5.16072
-5.18476
-5.20881
-5.23277
-5.25652
-5.27996
-5.30297
-5.32543
-5.34723
-5.36824
-5.38834
-5.40742
-5.42534
-5.44199
-5.45725
-5.471
-5.48311
-5.49346
-5.50195
-5.50845
-5.51284
-5.51503
-5.5149
-5.51234
-5.50725
-5.49954
-5.4891
-5.47586
-5.45972
-5.44061
-5.41844
-5.39316
-5.36468
-5.33297
-5.29796
-5.25961
-5.21785
-5.17262
-5.12389
-5.07161
-5.01578
-4.95637
-4.89339
-4.82681
-4.75665
-4.68291
-4.6056
-4.52474
-4.44036
-4.35247
-4.26113
-4.16635
-4.06819
-3.9667
-3.86192
-3.75392
-3.64275
-3.52848
-3.41118
-3.29093
-3.16781
-3.04189
-2.91328
-2.78205
-2.6483
-2.51214
-2.37367
-2.23298
-2.09019
-1.94542
-1.79877
-1.65036
-1.50032
-1.34877
-1.19583
-1.04162
-0.886292
-0.729961
-0.572763
-0.414832
-0.256303
-0.0973123
0.062004
0.221509
0.381067
0.54054
0.699793
0.858692
1.0171
1.17489
1.33193
1.48809
1.64325
1.79728