/*--------------------------------*- C++ -*----------------------------------*\
| =========                 |                                                 |
| \\      /  F ield         | OpenFOAM: The Open Source CFD Toolbox           |
|  \\    /   O peration     | Version:  2412                                  |
|   \\  /    A nd           | Website:  www.openfoam.com                      |
|    \\/     M anipulation  |                                                 |
\*---------------------------------------------------------------------------*/
FoamFile
{
    version     2.0;
    format      ascii;
    arch        "LSB;label=32;scalar=64";
    class       surfaceScalarField;
    location    "0.17";
    object      phi;
}
// * * * * * * * * * * * * * * * * * * * * * * * * * * * * * * * * * * * * * //

dimensions      [0 3 -1 0 0 0 0];

oriented        oriented;

internalField   nonuniform List<scalar> 
24170
(
1.36706e-07
-5.71619e-08
1.95621e-07
-5.89145e-08
2.57917e-07
-6.22963e-08
3.1167e-07
-5.37533e-08
3.61807e-07
-5.01364e-08
4.07914e-07
-4.61074e-08
4.49558e-07
-4.16435e-08
4.87079e-07
-3.75214e-08
5.20864e-07
-3.37852e-08
5.5125e-07
-3.0386e-08
5.78562e-07
-2.73114e-08
6.0309e-07
-2.45282e-08
6.25077e-07
-2.19874e-08
6.447e-07
-1.96224e-08
6.62094e-07
-1.73937e-08
6.77131e-07
-1.50378e-08
6.89823e-07
-1.26912e-08
-8.08414e-09
6.97907e-07
3.26112e-07
-1.24822e-07
3.94132e-07
-1.26934e-07
4.55885e-07
-1.2405e-07
5.14182e-07
-1.1205e-07
5.67674e-07
-1.03629e-07
6.16628e-07
-9.50611e-08
6.61267e-07
-8.62821e-08
7.01814e-07
-7.80686e-08
7.38566e-07
-7.0538e-08
7.71845e-07
-6.36646e-08
8.01955e-07
-5.74212e-08
8.29169e-07
-5.17428e-08
8.53721e-07
-4.65386e-08
8.75788e-07
-4.16897e-08
8.95484e-07
-3.70899e-08
9.12807e-07
-3.23612e-08
9.27846e-07
-2.77301e-08
-1.99572e-08
9.39719e-07
5.17244e-07
-1.7161e-07
5.7915e-07
-1.8884e-07
6.38208e-07
-1.83108e-07
6.95364e-07
-1.69206e-07
7.48174e-07
-1.56439e-07
7.96776e-07
-1.43663e-07
8.41417e-07
-1.30923e-07
8.82231e-07
-1.18883e-07
9.19436e-07
-1.07742e-07
9.53294e-07
-9.75226e-08
9.84066e-07
-8.81935e-08
1.01199e-06
-7.96698e-08
1.03728e-06
-7.18292e-08
1.06011e-06
-6.45136e-08
1.08057e-06
-5.75531e-08
1.09878e-06
-5.05676e-08
1.11454e-06
-4.34939e-08
-3.34752e-08
1.12806e-06
7.4348e-07
-1.9542e-07
7.91919e-07
-2.3728e-07
8.43828e-07
-2.35016e-07
8.96358e-07
-2.21736e-07
9.46018e-07
-2.06099e-07
9.92294e-07
-1.89939e-07
1.0352e-06
-1.73832e-07
1.07474e-06
-1.58425e-07
1.11103e-06
-1.44027e-07
1.14424e-06
-1.30729e-07
1.17456e-06
-1.18517e-07
1.20219e-06
-1.07303e-07
1.22731e-06
-9.69467e-08
1.25006e-06
-8.7265e-08
1.27055e-06
-7.80441e-08
1.28889e-06
-6.89092e-08
1.30499e-06
-5.95867e-08
-4.79619e-08
1.31947e-06
1.01492e-06
-1.99873e-07
1.04731e-06
-2.69663e-07
1.08853e-06
-2.7624e-07
1.13339e-06
-2.66596e-07
1.17752e-06
-2.50223e-07
1.21951e-06
-2.31932e-07
1.259e-06
-2.1332e-07
1.29579e-06
-1.95214e-07
1.32984e-06
-1.7808e-07
1.36122e-06
-1.62115e-07
1.39005e-06
-1.47347e-07
1.41646e-06
-1.33706e-07
1.44056e-06
-1.21052e-07
1.46249e-06
-1.09193e-07
1.48234e-06
-9.78951e-08
1.50024e-06
-8.68037e-08
1.51622e-06
-7.55688e-08
-6.27222e-08
1.53098e-06
1.33808e-06
-1.90514e-07
1.35426e-06
-2.85847e-07
1.38244e-06
-3.04421e-07
1.41695e-06
-3.01102e-07
1.45315e-06
-2.86426e-07
1.48882e-06
-2.67601e-07
1.52311e-06
-2.47604e-07
1.55556e-06
-2.27671e-07
1.58598e-06
-2.08498e-07
1.61429e-06
-1.90425e-07
1.6405e-06
-1.73559e-07
1.66467e-06
-1.5787e-07
1.68686e-06
-1.4324e-07
1.70715e-06
-1.29488e-07
1.72564e-06
-1.16383e-07
1.74244e-06
-1.03612e-07
1.75771e-06
-9.08355e-08
-7.70752e-08
1.77206e-06
1.71767e-06
-1.72903e-07
1.7193e-06
-2.87476e-07
1.73353e-06
-3.1865e-07
1.75571e-06
-3.23286e-07
1.78182e-06
-3.12538e-07
1.80915e-06
-2.94934e-07
1.83641e-06
-2.74861e-07
1.86289e-06
-2.5415e-07
1.88818e-06
-2.33789e-07
1.91207e-06
-2.1431e-07
1.93444e-06
-1.95932e-07
1.95526e-06
-1.78691e-07
1.97453e-06
-1.62513e-07
1.9923e-06
-1.47248e-07
2.00861e-06
-1.32694e-07
2.02359e-06
-1.18593e-07
2.03742e-06
-1.04665e-07
-9.02879e-08
2.05063e-06
2.15733e-06
-1.51547e-07
2.14717e-06
-2.77311e-07
2.14804e-06
-3.19521e-07
2.15704e-06
-3.3228e-07
2.17146e-06
-3.26966e-07
2.18872e-06
-3.12192e-07
2.20725e-06
-2.93391e-07
2.22614e-06
-2.7304e-07
2.24481e-06
-2.52457e-07
2.26289e-06
-2.32387e-07
2.28015e-06
-2.13193e-07
2.29646e-06
-1.95002e-07
2.31175e-06
-1.77804e-07
2.326e-06
-1.61499e-07
2.33924e-06
-1.45935e-07
2.35157e-06
-1.30919e-07
2.36315e-06
-1.1625e-07
-1.01562e-07
2.37443e-06
2.66011e-06
-1.29469e-07
2.64126e-06
-2.58466e-07
2.63056e-06
-3.08819e-07
2.62678e-06
-3.285e-07
2.62887e-06
-3.2905e-07
2.6349e-06
-3.18225e-07
2.64337e-06
-3.01859e-07
2.65328e-06
-2.82956e-07
2.66396e-06
-2.63135e-07
2.67492e-06
-2.43345e-07
2.68583e-06
-2.24101e-07
2.69647e-06
-2.05639e-07
2.70669e-06
-1.88027e-07
2.71642e-06
-1.71234e-07
2.72565e-06
-1.55165e-07
2.73444e-06
-1.39702e-07
2.74291e-06
-1.24726e-07
-1.10053e-07
2.7514e-06
3.22873e-06
-1.08345e-07
3.204e-06
-2.33729e-07
3.18407e-06
-2.88889e-07
3.16903e-06
-3.1346e-07
3.15921e-06
-3.19233e-07
3.15374e-06
-3.12752e-07
3.15145e-06
-2.99575e-07
3.15148e-06
-2.8298e-07
3.15314e-06
-2.64792e-07
3.1559e-06
-2.46112e-07
3.15938e-06
-2.27585e-07
3.1633e-06
-2.09555e-07
3.16745e-06
-1.92175e-07
3.1717e-06
-1.75487e-07
3.176e-06
-1.59464e-07
3.18035e-06
-1.44055e-07
3.18485e-06
-1.29227e-07
-1.1491e-07
3.18971e-06
3.8657e-06
-8.90199e-08
3.83717e-06
-2.052e-07
3.81025e-06
-2.61961e-07
3.78605e-06
-2.89265e-07
3.76576e-06
-2.98942e-07
3.74948e-06
-2.96476e-07
3.73661e-06
-2.867e-07
3.72652e-06
-2.72889e-07
3.71867e-06
-2.56947e-07
3.71261e-06
-2.40045e-07
3.70793e-06
-2.22908e-07
3.70434e-06
-2.05964e-07
3.70161e-06
-1.89443e-07
3.69957e-06
-1.7345e-07
3.69813e-06
-1.58027e-07
3.69726e-06
-1.4318e-07
3.69698e-06
-1.28951e-07
-1.15338e-07
3.69741e-06
3.81123e-06
-7.33464e-08
3.78552e-06
-1.79484e-07
3.75883e-06
-2.35272e-07
3.73299e-06
-2.63424e-07
3.7093e-06
-2.75258e-07
3.68836e-06
-2.75534e-07
3.67007e-06
-2.68406e-07
3.65416e-06
-2.5698e-07
3.64035e-06
-2.43143e-07
3.62837e-06
-2.28058e-07
3.61793e-06
-2.12473e-07
3.60882e-06
-1.96851e-07
3.60084e-06
-1.81466e-07
3.59386e-06
-1.66471e-07
3.58778e-06
-1.51948e-07
3.58255e-06
-1.37951e-07
3.57812e-06
-1.24516e-07
-1.11887e-07
3.57467e-06
5.03713e-06
-5.77141e-08
5.00707e-06
-1.49424e-07
4.9736e-06
-2.01808e-07
4.93951e-06
-2.29334e-07
4.90651e-06
-2.42255e-07
4.87573e-06
-2.44758e-07
4.84749e-06
-2.40159e-07
4.82174e-06
-2.31235e-07
4.79839e-06
-2.19788e-07
4.77725e-06
-2.06924e-07
4.75814e-06
-1.93362e-07
4.74086e-06
-1.7957e-07
4.72524e-06
-1.65846e-07
4.71114e-06
-1.52371e-07
4.69845e-06
-1.3926e-07
4.6871e-06
-1.26598e-07
4.67703e-06
-1.14448e-07
-1.03151e-07
4.6683e-06
6.66244e-06
-4.26788e-08
6.62912e-06
-1.16111e-07
6.58916e-06
-1.61849e-07
6.54669e-06
-1.86862e-07
6.50384e-06
-1.99405e-07
6.46228e-06
-2.03192e-07
6.42279e-06
-2.00674e-07
6.38566e-06
-1.94101e-07
6.35096e-06
-1.85095e-07
6.31871e-06
-1.74668e-07
6.28881e-06
-1.63467e-07
6.26117e-06
-1.51932e-07
6.23568e-06
-1.4035e-07
6.21222e-06
-1.28913e-07
6.1907e-06
-1.17746e-07
6.17106e-06
-1.06949e-07
6.15321e-06
-9.66022e-08
-8.70705e-08
6.13713e-06
8.79086e-06
-2.88759e-08
8.75646e-06
-8.17069e-08
8.71175e-06
-1.17139e-07
8.66207e-06
-1.37182e-07
8.61012e-06
-1.47459e-07
8.55803e-06
-1.51101e-07
8.50716e-06
-1.49806e-07
8.4582e-06
-1.45139e-07
8.41149e-06
-1.38385e-07
8.36722e-06
-1.30394e-07
8.32546e-06
-1.21706e-07
8.28621e-06
-1.12689e-07
8.24946e-06
-1.03598e-07
8.21515e-06
-9.46063e-08
8.18324e-06
-8.58336e-08
8.15367e-06
-7.73734e-08
8.12636e-06
-6.92941e-08
-6.19732e-08
8.10126e-06
1.15181e-05
-1.66017e-08
1.14848e-05
-4.84037e-08
1.14383e-05
-7.07326e-08
1.13845e-05
-8.33512e-08
1.13264e-05
-8.93698e-08
1.12664e-05
-9.11025e-08
1.12063e-05
-8.96933e-08
1.11472e-05
-8.6056e-08
1.10899e-05
-8.10214e-08
1.10347e-05
-7.51832e-08
1.09819e-05
-6.89164e-08
1.09316e-05
-6.24718e-08
1.08841e-05
-5.60287e-08
1.08392e-05
-4.97145e-08
1.0797e-05
-4.36235e-08
1.07574e-05
-3.78327e-08
1.07205e-05
-3.23692e-08
-2.76167e-08
1.06862e-05
1.48842e-05
-5.39442e-09
1.48525e-05
-1.66858e-08
1.48063e-05
-2.45027e-08
1.4751e-05
-2.81213e-08
1.46904e-05
-2.87043e-08
1.46267e-05
-2.74205e-08
1.45619e-05
-2.48583e-08
1.44972e-05
-2.14146e-08
1.44337e-05
-1.74693e-08
1.43718e-05
-1.33162e-08
1.4312e-05
-9.13959e-09
1.42546e-05
-5.05769e-09
1.41997e-05
-1.16283e-09
1.41475e-05
2.50636e-09
1.4098e-05
5.88801e-09
1.40512e-05
8.93923e-09
1.40072e-05
1.169e-08
1.379e-08
1.39658e-05
1.8769e-05
6.28119e-09
1.87365e-05
1.58484e-08
1.86883e-05
2.36888e-08
1.86301e-05
3.00705e-08
1.85661e-05
3.53348e-08
1.84989e-05
3.97468e-08
1.84306e-05
4.34739e-08
1.83625e-05
4.66393e-08
1.82957e-05
4.93377e-08
1.82308e-05
5.16356e-08
1.8168e-05
5.35775e-08
1.81078e-05
5.51932e-08
1.80501e-05
5.65028e-08
1.79951e-05
5.75176e-08
1.79428e-05
5.82426e-08
1.7893e-05
5.86656e-08
1.78459e-05
5.88457e-08
5.85228e-08
1.78011e-05
2.26768e-05
1.7011e-08
2.26399e-05
5.28003e-08
2.25835e-05
8.00859e-08
2.25149e-05
9.86649e-08
2.24392e-05
1.11032e-07
2.23597e-05
1.19193e-07
2.2279e-05
1.24207e-07
2.21988e-05
1.26851e-07
2.21203e-05
1.27823e-07
2.20443e-05
1.27646e-07
2.19712e-05
1.2666e-07
2.19013e-05
1.25091e-07
2.18347e-05
1.231e-07
2.17714e-05
1.20799e-07
2.17114e-05
1.18266e-07
2.16545e-05
1.15548e-07
2.16007e-05
1.12706e-07
1.09599e-07
2.15496e-05
1.5604e-05
3.26554e-08
1.55641e-05
9.26563e-08
1.55091e-05
1.35094e-07
1.54457e-05
1.62091e-07
1.53778e-05
1.78949e-07
1.53081e-05
1.88883e-07
1.52387e-05
1.93612e-07
1.51709e-05
1.94595e-07
1.51057e-05
1.93076e-07
1.50434e-05
1.89919e-07
1.49844e-05
1.85688e-07
1.49287e-05
1.80768e-07
1.48763e-05
1.75434e-07
1.48273e-05
1.69877e-07
1.47813e-05
1.64228e-07
1.47383e-05
1.58579e-07
1.4698e-05
1.5299e-07
1.47404e-07
1.46602e-05
1.23902e-05
5.12458e-08
1.23448e-05
1.38126e-07
1.22864e-05
1.93447e-07
1.22225e-05
2.25967e-07
1.21567e-05
2.44836e-07
1.20914e-05
2.54167e-07
1.20285e-05
2.56496e-07
1.19689e-05
2.54151e-07
1.19131e-05
2.48889e-07
1.18612e-05
2.41831e-07
1.18132e-05
2.33705e-07
1.17689e-05
2.25008e-07
1.17283e-05
2.16083e-07
1.1691e-05
2.07157e-07
1.16569e-05
1.98377e-07
1.16256e-05
1.8984e-07
1.1597e-05
1.81593e-07
1.73622e-07
1.15708e-05
9.55929e-06
7.55518e-08
9.50979e-06
1.87625e-07
9.45372e-06
2.4951e-07
9.39692e-06
2.82773e-07
9.34174e-06
3.00018e-07
9.29017e-06
3.05732e-07
9.24317e-06
3.03494e-07
9.20088e-06
2.96446e-07
9.16314e-06
2.86629e-07
9.12969e-06
2.75275e-07
9.10022e-06
2.63182e-07
9.07434e-06
2.50883e-07
9.05171e-06
2.38719e-07
9.03196e-06
2.26899e-07
9.0148e-06
2.15542e-07
8.99992e-06
2.04721e-07
8.98706e-06
1.94452e-07
1.84738e-07
8.97594e-06
7.18003e-06
1.04969e-07
7.13264e-06
2.35013e-07
7.08701e-06
2.95146e-07
7.04544e-06
3.24339e-07
7.00923e-06
3.36232e-07
6.9793e-06
3.35655e-07
6.95534e-06
3.27454e-07
6.93658e-06
3.15209e-07
6.92228e-06
3.00929e-07
6.91177e-06
2.85783e-07
6.90444e-06
2.70512e-07
6.89976e-06
2.55569e-07
6.89726e-06
2.41215e-07
6.89657e-06
2.27585e-07
6.89738e-06
2.14738e-07
6.89941e-06
2.02689e-07
6.90245e-06
1.91417e-07
1.80918e-07
6.90627e-06
5.24556e-06
1.38126e-07
5.20786e-06
2.72708e-07
5.18044e-06
3.22572e-07
5.16163e-06
3.43147e-07
5.15137e-06
3.4649e-07
5.14861e-06
3.38419e-07
5.15151e-06
3.24553e-07
5.15858e-06
3.08143e-07
5.16871e-06
2.90796e-07
5.18106e-06
2.73436e-07
5.19496e-06
2.56611e-07
5.20991e-06
2.40616e-07
5.22554e-06
2.25587e-07
5.24156e-06
2.11567e-07
5.25775e-06
1.98542e-07
5.27397e-06
1.86476e-07
5.29007e-06
1.75311e-07
1.65033e-07
5.30596e-06
3.71461e-06
1.71647e-07
3.69607e-06
2.91248e-07
3.69443e-06
3.24216e-07
3.70436e-06
3.3322e-07
3.72344e-06
3.27408e-07
3.74842e-06
3.13437e-07
3.77673e-06
2.96239e-07
3.80683e-06
2.78043e-07
3.83772e-06
2.59907e-07
3.86872e-06
2.42438e-07
3.89937e-06
2.25961e-07
3.92938e-06
2.10612e-07
3.95855e-06
1.96417e-07
3.98677e-06
1.83343e-07
4.01398e-06
1.71329e-07
4.04016e-06
1.60299e-07
4.0653e-06
1.50174e-07
1.4094e-07
4.08939e-06
2.5354e-06
1.96846e-07
2.54625e-06
2.804e-07
2.57487e-06
2.95596e-07
2.61419e-06
2.93895e-07
2.65965e-06
2.81946e-07
2.70726e-06
2.65826e-07
2.75499e-06
2.48508e-07
2.80184e-06
2.31192e-07
2.84722e-06
2.1453e-07
2.89079e-06
1.98871e-07
2.93238e-06
1.84366e-07
2.97195e-06
1.71041e-07
3.00951e-06
1.58856e-07
3.04512e-06
1.47739e-07
3.07884e-06
1.37602e-07
3.11079e-06
1.28357e-07
3.14104e-06
1.19922e-07
1.12295e-07
3.16968e-06
1.65469e-06
1.99258e-07
1.70056e-06
2.34531e-07
1.75708e-06
2.3908e-07
1.81982e-06
2.31151e-07
1.88378e-06
2.17992e-07
1.94598e-06
2.03624e-07
2.00556e-06
1.88926e-07
2.06216e-06
1.74598e-07
2.11558e-06
1.61106e-07
2.16582e-06
1.4863e-07
2.21298e-06
1.3721e-07
2.25719e-06
1.26823e-07
2.29865e-06
1.17402e-07
2.33752e-06
1.08865e-07
2.374e-06
1.01126e-07
2.40825e-06
9.41025e-08
2.44046e-06
8.77154e-08
8.20023e-08
2.47075e-06
1.01827e-06
1.63846e-07
1.09488e-06
1.57924e-07
1.17024e-06
1.63721e-07
1.24669e-06
1.54699e-07
1.32008e-06
1.446e-07
1.38906e-06
1.34644e-07
1.4537e-06
1.24295e-07
1.51403e-06
1.14265e-07
1.57017e-06
1.04965e-07
1.62234e-06
9.64593e-08
1.67081e-06
8.87374e-08
1.71587e-06
8.17633e-08
1.7578e-06
7.54779e-08
1.79685e-06
6.98121e-08
1.83328e-06
6.46979e-08
1.86731e-06
6.00747e-08
1.89916e-06
5.5863e-08
5.21386e-08
1.92902e-06
5.69237e-07
8.45265e-08
6.58981e-07
6.81792e-08
7.40762e-07
8.19406e-08
8.20857e-07
7.46043e-08
8.95855e-07
6.96017e-08
9.65406e-07
6.5092e-08
1.02983e-06
5.98762e-08
1.08933e-06
5.47607e-08
1.1442e-06
5.0095e-08
1.19479e-06
4.58684e-08
1.24148e-06
4.20516e-08
1.28462e-06
3.86241e-08
1.32454e-06
3.55519e-08
1.36156e-06
3.27953e-08
1.39594e-06
3.0316e-08
1.42793e-06
2.80854e-08
1.45776e-06
2.60313e-08
2.42027e-08
1.4857e-06
2.22451e-07
2.9063e-07
3.7257e-07
4.47175e-07
5.16776e-07
5.81868e-07
6.41745e-07
6.96505e-07
7.466e-07
7.92469e-07
8.3452e-07
8.73144e-07
9.08696e-07
9.41491e-07
9.71807e-07
9.99893e-07
1.02592e-06
1.05013e-06
2.09313e-08
-2.09313e-08
4.56929e-08
-2.47616e-08
6.6062e-08
-2.03691e-08
7.97278e-08
-1.36658e-08
8.60112e-08
-6.28333e-09
8.51396e-08
8.7155e-10
7.80851e-08
7.05447e-09
6.61897e-08
1.18954e-08
5.07198e-08
1.54699e-08
3.25828e-08
1.8137e-08
1.22693e-08
2.03135e-08
-1.00814e-08
2.23507e-08
-3.45776e-08
2.44962e-08
-6.14342e-08
2.68566e-08
-9.08714e-08
2.94371e-08
-1.23071e-07
3.22001e-08
-1.5815e-07
3.50788e-08
-1.96146e-07
3.79953e-08
-2.37015e-07
4.0869e-08
-2.80636e-07
4.36213e-08
-3.26816e-07
4.61806e-08
-3.75301e-07
4.8485e-08
-4.25787e-07
5.0486e-08
-4.77937e-07
5.21498e-08
-5.31395e-07
5.34578e-08
-5.85801e-07
5.44062e-08
-6.40805e-07
5.50041e-08
-6.96078e-07
5.52728e-08
-7.51323e-07
5.52453e-08
-8.0629e-07
5.49669e-08
-8.60778e-07
5.4488e-08
-9.14623e-07
5.3845e-08
-9.67682e-07
5.3059e-08
-1.01984e-06
5.21545e-08
-1.07099e-06
5.1154e-08
-1.12107e-06
5.00783e-08
-1.17001e-06
4.89453e-08
-1.21778e-06
4.77703e-08
-1.26435e-06
4.65658e-08
-1.30969e-06
4.53417e-08
-1.3538e-06
4.41054e-08
-1.39666e-06
4.28625e-08
-1.43828e-06
4.16166e-08
-1.47865e-06
4.03703e-08
-1.51777e-06
3.91246e-08
-1.55565e-06
3.78801e-08
-1.59229e-06
3.66364e-08
-1.62768e-06
3.5393e-08
-1.66183e-06
3.41489e-08
-1.69473e-06
3.29032e-08
-1.72639e-06
3.16547e-08
-1.75679e-06
3.04024e-08
-1.78594e-06
2.91454e-08
-1.81382e-06
2.7883e-08
-1.84043e-06
2.66143e-08
-1.86577e-06
2.5339e-08
-1.88983e-06
2.40567e-08
-1.9126e-06
2.27672e-08
-1.93407e-06
2.14704e-08
-1.95423e-06
2.01661e-08
-1.97309e-06
1.88545e-08
-1.99062e-06
1.75354e-08
-2.00683e-06
1.62087e-08
-2.0217e-06
1.48738e-08
-2.03524e-06
1.35303e-08
-2.04741e-06
1.21768e-08
-2.05822e-06
1.08113e-08
-2.06765e-06
9.43003e-09
-2.07568e-06
8.02921e-09
-2.08229e-06
6.6032e-09
-2.08743e-06
5.14409e-09
-2.09107e-06
3.64342e-09
-2.09317e-06
2.09986e-09
-2.09364e-06
4.66995e-10
-2.0927e-06
-9.37339e-10
-2.09049e-06
-2.20924e-09
-2.08707e-06
-3.41941e-09
-2.08248e-06
-4.59202e-09
-2.07674e-06
-5.74415e-09
-2.06985e-06
-6.8836e-09
-2.06184e-06
-8.0134e-09
-2.05271e-06
-9.13446e-09
-2.04246e-06
-1.02467e-08
-2.03111e-06
-1.13498e-08
-2.01867e-06
-1.24432e-08
-2.00514e-06
-1.35262e-08
-1.99054e-06
-1.45983e-08
-1.97488e-06
-1.56588e-08
-1.95818e-06
-1.67071e-08
-1.94043e-06
-1.77428e-08
-1.92167e-06
-1.87653e-08
-1.90189e-06
-1.9774e-08
-1.88113e-06
-2.07687e-08
-1.85938e-06
-2.17488e-08
-1.83666e-06
-2.27138e-08
-1.813e-06
-2.36634e-08
-1.7884e-06
-2.45971e-08
-1.76289e-06
-2.55146e-08
-1.73647e-06
-2.64154e-08
-1.70917e-06
-2.72991e-08
-1.68101e-06
-2.81652e-08
-1.65199e-06
-2.90135e-08
-1.62215e-06
-2.98434e-08
-1.5915e-06
-3.06547e-08
-1.56005e-06
-3.14468e-08
-1.52783e-06
-3.22193e-08
-1.49486e-06
-3.29717e-08
-1.46116e-06
-3.37036e-08
-1.42674e-06
-3.44144e-08
-1.39164e-06
-3.51037e-08
-1.35587e-06
-3.57709e-08
-1.31945e-06
-3.64156e-08
-1.28241e-06
-3.70373e-08
-1.24478e-06
-3.76353e-08
-1.20657e-06
-3.82092e-08
-1.16781e-06
-3.87584e-08
-1.12853e-06
-3.92824e-08
-1.08875e-06
-3.97807e-08
-1.04849e-06
-4.02527e-08
-1.0078e-06
-4.06981e-08
-9.6668e-07
-4.11162e-08
-9.25173e-07
-4.15067e-08
-8.83304e-07
-4.18691e-08
-8.41101e-07
-4.2203e-08
-7.98593e-07
-4.2508e-08
-7.55809e-07
-4.27839e-08
-7.12779e-07
-4.30302e-08
-6.69532e-07
-4.32469e-08
-6.26099e-07
-4.34335e-08
-5.82509e-07
-4.359e-08
-5.38793e-07
-4.37162e-08
-4.94981e-07
-4.38118e-08
-4.51104e-07
-4.38768e-08
-4.07193e-07
-4.3911e-08
-3.63279e-07
-4.39142e-08
-3.19393e-07
-4.38861e-08
-2.75567e-07
-4.38261e-08
-2.31833e-07
-4.37336e-08
-1.88225e-07
-4.36077e-08
-1.4478e-07
-4.34451e-08
-1.01531e-07
-4.32495e-08
-5.85099e-08
-4.30208e-08
-1.57593e-08
-4.27506e-08
2.66856e-08
-4.2445e-08
6.87843e-08
-4.20986e-08
1.10509e-07
-4.17247e-08
1.51849e-07
-4.13403e-08
1.92801e-07
-4.09513e-08
2.33356e-07
-4.05554e-08
2.73506e-07
-4.01504e-08
3.13241e-07
-3.97348e-08
3.52549e-07
-3.9308e-08
3.91419e-07
-3.88701e-08
4.29841e-07
-3.84217e-08
4.67804e-07
-3.79635e-08
5.05301e-07
-3.74966e-08
5.42323e-07
-3.70222e-08
5.78864e-07
-3.65413e-08
6.1492e-07
-3.60554e-08
6.50485e-07
-3.55653e-08
6.85558e-07
-3.50724e-08
7.20135e-07
-3.45772e-08
7.54215e-07
-3.40804e-08
7.87797e-07
-3.35821e-08
8.20879e-07
-3.30816e-08
8.53456e-07
-3.25772e-08
8.85522e-07
-3.20661e-08
9.17065e-07
-3.15431e-08
9.48065e-07
-3.09999e-08
9.78489e-07
-3.04238e-08
1.00828e-06
-2.9794e-08
1.03736e-06
-2.90782e-08
1.06558e-06
-2.82219e-08
1.09272e-06
-2.71329e-08
1.11835e-06
-2.56324e-08
1.14172e-06
-2.33755e-08
1.16112e-06
-1.93974e-08
1.17264e-06
-1.15172e-08
1.16354e-06
9.09924e-09
5.46089e-08
1.10893e-06
1.77525e-08
-3.86838e-08
2.62436e-08
-3.32526e-08
2.67089e-08
-2.08344e-08
2.14458e-08
-8.40273e-09
1.18594e-08
3.30306e-09
-1.29743e-09
1.40284e-08
-1.78456e-08
2.36027e-08
-3.78798e-08
3.19296e-08
-6.14964e-08
3.90865e-08
-8.86904e-08
4.5331e-08
-1.19375e-07
5.0998e-08
-1.53413e-07
5.63889e-08
-1.90625e-07
6.17086e-08
-2.30819e-07
6.70499e-08
-2.7379e-07
7.24082e-08
-3.19303e-07
7.77134e-08
-3.67084e-07
8.28596e-08
-4.16817e-07
8.77288e-08
-4.68155e-07
9.22065e-08
-5.20726e-07
9.61928e-08
-5.74155e-07
9.96089e-08
-6.28071e-07
1.02401e-07
-6.82126e-07
1.04541e-07
-7.36005e-07
1.06028e-07
-7.8943e-07
1.06883e-07
-8.42168e-07
1.07144e-07
-8.94031e-07
1.06868e-07
-9.44876e-07
1.06117e-07
-9.94595e-07
1.04964e-07
-1.04311e-06
1.03482e-07
-1.09036e-06
1.01739e-07
-1.13631e-06
9.97903e-08
-1.18093e-06
9.76821e-08
-1.22423e-06
9.54549e-08
-1.26622e-06
9.31426e-08
-1.30691e-06
9.07733e-08
-1.34634e-06
8.83694e-08
-1.38452e-06
8.5948e-08
-1.42147e-06
8.3522e-08
-1.45723e-06
8.11001e-08
-1.49181e-06
7.86882e-08
-1.52524e-06
7.62892e-08
-1.55753e-06
7.39044e-08
-1.58869e-06
7.15333e-08
-1.61874e-06
6.91744e-08
-1.64769e-06
6.68255e-08
-1.67553e-06
6.44839e-08
-1.70229e-06
6.21469e-08
-1.72795e-06
5.98115e-08
-1.75252e-06
5.7475e-08
-1.776e-06
5.51348e-08
-1.79839e-06
5.27888e-08
-1.81968e-06
5.0435e-08
-1.83987e-06
4.80719e-08
-1.85895e-06
4.56982e-08
-1.87692e-06
4.33131e-08
-1.89378e-06
4.0916e-08
-1.90952e-06
3.85067e-08
-1.92414e-06
3.60851e-08
-1.93762e-06
3.36514e-08
-1.94997e-06
3.12059e-08
-1.96119e-06
2.87492e-08
-1.97126e-06
2.62816e-08
-1.98019e-06
2.38037e-08
-1.98798e-06
2.13159e-08
-1.99462e-06
1.88186e-08
-2.00012e-06
1.63124e-08
-2.00449e-06
1.37977e-08
-2.00773e-06
1.12758e-08
-2.00988e-06
8.74917e-09
-2.01096e-06
6.22245e-09
-2.01102e-06
3.70493e-09
-2.01014e-06
1.21887e-09
-2.00845e-06
-1.22667e-09
-2.00579e-06
-3.5929e-09
-2.00209e-06
-5.91087e-09
-1.9973e-06
-8.20857e-09
-1.9914e-06
-1.04885e-08
-1.98439e-06
-1.27526e-08
-1.97628e-06
-1.5002e-08
-1.96705e-06
-1.72367e-08
-1.95673e-06
-1.94562e-08
-1.94532e-06
-2.16593e-08
-1.93282e-06
-2.38449e-08
-1.91925e-06
-2.60116e-08
-1.90462e-06
-2.81582e-08
-1.88894e-06
-3.02834e-08
-1.87221e-06
-3.23859e-08
-1.85445e-06
-3.44645e-08
-1.83568e-06
-3.65183e-08
-1.8159e-06
-3.8546e-08
-1.79512e-06
-4.05467e-08
-1.77337e-06
-4.25195e-08
-1.75066e-06
-4.44635e-08
-1.72699e-06
-4.63777e-08
-1.7024e-06
-4.82614e-08
-1.67688e-06
-5.01136e-08
-1.65046e-06
-5.19335e-08
-1.62316e-06
-5.37204e-08
-1.59498e-06
-5.54732e-08
-1.56596e-06
-5.71913e-08
-1.5361e-06
-5.88737e-08
-1.50542e-06
-6.05197e-08
-1.47395e-06
-6.21284e-08
-1.44169e-06
-6.3699e-08
-1.40868e-06
-6.52305e-08
-1.37493e-06
-6.67219e-08
-1.34046e-06
-6.81725e-08
-1.3053e-06
-6.9581e-08
-1.26945e-06
-7.09465e-08
-1.23296e-06
-7.2268e-08
-1.19583e-06
-7.35445e-08
-1.15809e-06
-7.4775e-08
-1.11977e-06
-7.59584e-08
-1.08088e-06
-7.70936e-08
-1.04146e-06
-7.81795e-08
-1.00153e-06
-7.9215e-08
-9.6111e-07
-8.01992e-08
-9.20232e-07
-8.1131e-08
-8.78921e-07
-8.20095e-08
-8.37203e-07
-8.28337e-08
-7.95107e-07
-8.36026e-08
-7.52661e-07
-8.43154e-08
-7.09893e-07
-8.49714e-08
-6.66831e-07
-8.55698e-08
-6.23505e-07
-8.61099e-08
-5.79944e-07
-8.65911e-08
-5.36178e-07
-8.7013e-08
-4.92236e-07
-8.73751e-08
-4.48149e-07
-8.76769e-08
-4.03947e-07
-8.79183e-08
-3.5966e-07
-8.80988e-08
-3.15319e-07
-8.82184e-08
-2.70953e-07
-8.82766e-08
-2.26594e-07
-8.82731e-08
-1.82273e-07
-8.82075e-08
-1.3802e-07
-8.8079e-08
-9.38669e-08
-8.78865e-08
-4.98451e-08
-8.76294e-08
-5.98608e-09
-8.73042e-08
3.76768e-08
-8.69124e-08
8.11109e-08
-8.64548e-08
1.24291e-07
-8.59304e-08
1.67192e-07
-8.53458e-08
2.09794e-07
-8.47013e-08
2.52078e-07
-8.40088e-08
2.94023e-07
-8.32848e-08
3.35609e-07
-8.25369e-08
3.76819e-07
-8.17662e-08
4.17641e-07
-8.0972e-08
4.5806e-07
-8.01535e-08
4.98063e-07
-7.93112e-08
5.37639e-07
-7.84458e-08
5.76776e-07
-7.75588e-08
6.15464e-07
-7.66522e-08
6.53696e-07
-7.57281e-08
6.91463e-07
-7.47889e-08
7.28758e-07
-7.3837e-08
7.65578e-07
-7.2875e-08
8.01918e-07
-7.19051e-08
8.37775e-07
-7.09293e-08
8.73147e-07
-6.99495e-08
9.08033e-07
-6.89667e-08
9.42432e-07
-6.79808e-08
9.76341e-07
-6.69908e-08
1.00976e-06
-6.59935e-08
1.04267e-06
-6.49827e-08
1.07508e-06
-6.39483e-08
1.10695e-06
-6.2874e-08
1.13826e-06
-6.17341e-08
1.16896e-06
-6.04881e-08
1.19895e-06
-5.90718e-08
1.22811e-06
-5.73798e-08
1.25621e-06
-5.52344e-08
1.28288e-06
-5.23058e-08
1.30749e-06
-4.79804e-08
1.3289e-06
-4.081e-08
1.34554e-06
-2.81527e-08
1.35582e-06
-1.18409e-09
5.41567e-08
1.35627e-06
1.64577e-09
-4.03296e-08
-6.40355e-09
-2.52033e-08
-1.91395e-08
-8.09848e-09
-3.49558e-08
7.41361e-09
-5.33109e-08
2.16581e-08
-7.40675e-08
3.4785e-08
-9.72937e-08
4.68288e-08
-1.23171e-07
5.78065e-08
-1.51882e-07
6.77978e-08
-1.83515e-07
7.69644e-08
-2.18023e-07
8.55056e-08
-2.55231e-07
9.35972e-08
-2.94872e-07
1.01349e-07
-3.36614e-07
1.08792e-07
-3.80095e-07
1.1589e-07
-4.24943e-07
1.22561e-07
-4.70787e-07
1.28703e-07
-5.1727e-07
1.34212e-07
-5.64061e-07
1.38998e-07
-6.10864e-07
1.42996e-07
-6.57423e-07
1.46168e-07
-7.03527e-07
1.48505e-07
-7.49011e-07
1.50025e-07
-7.93752e-07
1.5077e-07
-8.37667e-07
1.50797e-07
-8.80703e-07
1.5018e-07
-9.22833e-07
1.48998e-07
-9.64049e-07
1.47333e-07
-1.00435e-06
1.45268e-07
-1.04375e-06
1.42878e-07
-1.08224e-06
1.40232e-07
-1.11984e-06
1.3739e-07
-1.15656e-06
1.344e-07
-1.19241e-06
1.31303e-07
-1.2274e-06
1.28134e-07
-1.26154e-06
1.24917e-07
-1.29485e-06
1.21673e-07
-1.32732e-06
1.18418e-07
-1.35895e-06
1.15161e-07
-1.38976e-06
1.11909e-07
-1.41974e-06
1.08665e-07
-1.44888e-06
1.05431e-07
-1.47718e-06
1.02206e-07
-1.50464e-06
9.8988e-08
-1.53124e-06
9.57741e-08
-1.55697e-06
9.2561e-08
-1.58183e-06
8.9345e-08
-1.60581e-06
8.61225e-08
-1.62889e-06
8.28901e-08
-1.65106e-06
7.96445e-08
-1.67231e-06
7.63828e-08
-1.69262e-06
7.31025e-08
-1.71199e-06
6.98019e-08
-1.73039e-06
6.64792e-08
-1.74783e-06
6.31335e-08
-1.76428e-06
5.97643e-08
-1.77974e-06
5.63715e-08
-1.79419e-06
5.29554e-08
-1.80762e-06
4.95165e-08
-1.82002e-06
4.60561e-08
-1.83139e-06
4.25752e-08
-1.84172e-06
3.90756e-08
-1.85099e-06
3.55589e-08
-1.85922e-06
3.20272e-08
-1.86638e-06
2.84826e-08
-1.87249e-06
2.49276e-08
-1.87755e-06
2.13653e-08
-1.88155e-06
1.7799e-08
-1.88451e-06
1.42332e-08
-1.88643e-06
1.06735e-08
-1.88733e-06
7.12737e-09
-1.88723e-06
3.60475e-09
-1.88612e-06
1.09119e-10
-1.88402e-06
-3.33548e-09
-1.88086e-06
-6.74979e-09
-1.87663e-06
-1.01383e-08
-1.87133e-06
-1.35094e-08
-1.86495e-06
-1.68648e-08
-1.8575e-06
-2.02041e-08
-1.84898e-06
-2.35261e-08
-1.83939e-06
-2.68291e-08
-1.82873e-06
-3.01111e-08
-1.81702e-06
-3.33701e-08
-1.80426e-06
-3.66039e-08
-1.79046e-06
-3.98105e-08
-1.77563e-06
-4.29879e-08
-1.75978e-06
-4.6134e-08
-1.74292e-06
-4.9247e-08
-1.72506e-06
-5.23252e-08
-1.70621e-06
-5.53667e-08
-1.68639e-06
-5.83701e-08
-1.6656e-06
-6.13338e-08
-1.64386e-06
-6.42564e-08
-1.62119e-06
-6.71366e-08
-1.5976e-06
-6.99729e-08
-1.57309e-06
-7.2764e-08
-1.5477e-06
-7.55088e-08
-1.52143e-06
-7.82059e-08
-1.49429e-06
-8.08539e-08
-1.46631e-06
-8.34517e-08
-1.43751e-06
-8.59979e-08
-1.40789e-06
-8.84913e-08
-1.37748e-06
-9.09306e-08
-1.34629e-06
-9.33146e-08
-1.31435e-06
-9.5642e-08
-1.28167e-06
-9.79113e-08
-1.24827e-06
-1.00121e-07
-1.21417e-06
-1.0227e-07
-1.1794e-06
-1.04357e-07
-1.14396e-06
-1.06379e-07
-1.10789e-06
-1.08337e-07
-1.07121e-06
-1.10227e-07
-1.03394e-06
-1.12048e-07
-9.96097e-07
-1.138e-07
-9.5771e-07
-1.1548e-07
-9.18803e-07
-1.17086e-07
-8.794e-07
-1.18618e-07
-8.39527e-07
-1.20073e-07
-7.99207e-07
-1.2145e-07
-7.58469e-07
-1.22748e-07
-7.17338e-07
-1.23965e-07
-6.75841e-07
-1.25099e-07
-6.34006e-07
-1.26151e-07
-5.9186e-07
-1.27117e-07
-5.49432e-07
-1.27998e-07
-5.06751e-07
-1.28792e-07
-4.63844e-07
-1.29498e-07
-4.20741e-07
-1.30116e-07
-3.77471e-07
-1.30645e-07
-3.34064e-07
-1.31084e-07
-2.90549e-07
-1.31433e-07
-2.46955e-07
-1.31692e-07
-2.03313e-07
-1.31861e-07
-1.59652e-07
-1.31938e-07
-1.16002e-07
-1.31923e-07
-7.2392e-08
-1.31817e-07
-2.88524e-08
-1.31619e-07
1.45872e-08
-1.31326e-07
5.78962e-08
-1.30938e-07
1.01046e-07
-1.30454e-07
1.44008e-07
-1.29874e-07
1.86754e-07
-1.29201e-07
2.29264e-07
-1.28441e-07
2.71522e-07
-1.27604e-07
3.13514e-07
-1.26693e-07
3.55217e-07
-1.25712e-07
3.96606e-07
-1.24674e-07
4.37656e-07
-1.23587e-07
4.78347e-07
-1.22457e-07
5.18661e-07
-1.21286e-07
5.58583e-07
-1.20076e-07
5.981e-07
-1.18828e-07
6.37197e-07
-1.17544e-07
6.75866e-07
-1.16227e-07
7.14095e-07
-1.14881e-07
7.51875e-07
-1.13509e-07
7.892e-07
-1.12114e-07
8.26063e-07
-1.107e-07
8.6246e-07
-1.09272e-07
8.98387e-07
-1.07832e-07
9.3384e-07
-1.06383e-07
9.6882e-07
-1.04929e-07
1.00332e-06
-1.0347e-07
1.03735e-06
-1.02008e-07
1.0709e-06
-1.00539e-07
1.10397e-06
-9.90603e-08
1.13654e-06
-9.75618e-08
1.16863e-06
-9.60288e-08
1.20019e-06
-9.44372e-08
1.2312e-06
-9.27493e-08
1.26162e-06
-9.09062e-08
1.29136e-06
-8.88149e-08
1.32031e-06
-8.63255e-08
1.34826e-06
-8.31886e-08
1.37492e-06
-7.89626e-08
1.3998e-06
-7.28557e-08
1.42221e-06
-6.32242e-08
1.44129e-06
-4.72316e-08
1.45757e-06
-1.74599e-08
3.7079e-08
1.47464e-06
-1.37219e-08
-2.66077e-08
-3.32847e-08
-5.64056e-09
-5.46671e-08
1.32839e-08
-7.74329e-08
3.01794e-08
-1.01568e-07
4.57928e-08
-1.27181e-07
6.03988e-08
-1.54432e-07
7.40793e-08
-1.83486e-07
8.68606e-08
-2.14468e-07
9.87795e-08
-2.47407e-07
1.09904e-07
-2.82217e-07
1.20315e-07
-3.18703e-07
1.30083e-07
-3.56594e-07
1.3924e-07
-3.95574e-07
1.47773e-07
-4.35318e-07
1.55633e-07
-4.75509e-07
1.62752e-07
-5.15862e-07
1.69056e-07
-5.5613e-07
1.7448e-07
-5.96113e-07
1.78981e-07
-6.35655e-07
1.82538e-07
-6.74647e-07
1.8516e-07
-7.13019e-07
1.86876e-07
-7.50733e-07
1.87739e-07
-7.87779e-07
1.87816e-07
-8.24164e-07
1.87183e-07
-8.59908e-07
1.85924e-07
-8.95034e-07
1.84124e-07
-9.29566e-07
1.81866e-07
-9.63525e-07
1.79227e-07
-9.96927e-07
1.7628e-07
-1.02978e-06
1.73086e-07
-1.06209e-06
1.697e-07
-1.09386e-06
1.66167e-07
-1.12508e-06
1.62525e-07
-1.15575e-06
1.58802e-07
-1.18586e-06
1.55024e-07
-1.21539e-06
1.51207e-07
-1.24433e-06
1.47364e-07
-1.27268e-06
1.43504e-07
-1.3004e-06
1.39632e-07
-1.32749e-06
1.35752e-07
-1.35392e-06
1.31862e-07
-1.37967e-06
1.27963e-07
-1.40474e-06
1.24052e-07
-1.42909e-06
1.20126e-07
-1.45271e-06
1.16181e-07
-1.47558e-06
1.12214e-07
-1.49768e-06
1.08222e-07
-1.51899e-06
1.042e-07
-1.53949e-06
1.00147e-07
-1.55917e-06
9.60594e-08
-1.578e-06
9.19351e-08
-1.59597e-06
8.77729e-08
-1.61306e-06
8.35718e-08
-1.62926e-06
7.93313e-08
-1.64455e-06
7.50517e-08
-1.65891e-06
7.07337e-08
-1.67234e-06
6.63784e-08
-1.68481e-06
6.19875e-08
-1.69631e-06
5.75631e-08
-1.70685e-06
5.31076e-08
-1.71639e-06
4.86239e-08
-1.72495e-06
4.41152e-08
-1.73251e-06
3.95847e-08
-1.73906e-06
3.50365e-08
-1.74461e-06
3.04744e-08
-1.74915e-06
2.59033e-08
-1.75268e-06
2.13279e-08
-1.7552e-06
1.67541e-08
-1.75671e-06
1.21877e-08
-1.75722e-06
7.63556e-09
-1.75672e-06
3.10399e-09
-1.75521e-06
-1.40249e-09
-1.75266e-06
-5.87863e-09
-1.74908e-06
-1.03296e-08
-1.74446e-06
-1.47606e-08
-1.7388e-06
-1.91743e-08
-1.73209e-06
-2.35711e-08
-1.72434e-06
-2.79493e-08
-1.71556e-06
-3.23068e-08
-1.70575e-06
-3.66407e-08
-1.69492e-06
-4.09483e-08
-1.68306e-06
-4.52265e-08
-1.67019e-06
-4.94725e-08
-1.65632e-06
-5.36835e-08
-1.64145e-06
-5.78567e-08
-1.62559e-06
-6.19894e-08
-1.60876e-06
-6.60792e-08
-1.59096e-06
-7.01236e-08
-1.57221e-06
-7.41205e-08
-1.55251e-06
-7.80676e-08
-1.53188e-06
-8.1963e-08
-1.51033e-06
-8.58046e-08
-1.48788e-06
-8.95908e-08
-1.46453e-06
-9.33196e-08
-1.44031e-06
-9.69893e-08
-1.41522e-06
-1.00598e-07
-1.38928e-06
-1.04145e-07
-1.36251e-06
-1.07627e-07
-1.33492e-06
-1.11043e-07
-1.30652e-06
-1.14391e-07
-1.27734e-06
-1.1767e-07