/*--------------------------------*- C++ -*----------------------------------*\
| =========                 |                                                 |
| \\      /  F ield         | OpenFOAM: The Open Source CFD Toolbox           |
|  \\    /   O peration     | Version:  2412                                  |
|   \\  /    A nd           | Website:  www.openfoam.com                      |
|    \\/     M anipulation  |                                                 |
\*---------------------------------------------------------------------------*/
FoamFile
{
    version     2.0;
    format      ascii;
    arch        "LSB;label=32;scalar=64";
    class       volVectorField;
    location    "0.17";
    object      U;
}
// * * * * * * * * * * * * * * * * * * * * * * * * * * * * * * * * * * * * * //

dimensions      [0 1 -1 0 0 0 0];

internalField   nonuniform List<vector> 
12225
(
(0.377183 -0.200896 0)
(0.543961 -0.0519268 0)
(0.711044 -0.0340143 0)
(0.893974 -0.0304765 0)
(1.0591 -0.0297466 0)
(1.20884 -0.0284521 0)
(1.34615 -0.0265178 0)
(1.47044 -0.0245749 0)
(1.58218 -0.0227655 0)
(1.68264 -0.0210729 0)
(1.77299 -0.0194943 0)
(1.85419 -0.0180217 0)
(1.92705 -0.0166335 0)
(1.99227 -0.0152879 0)
(2.05018 -0.013961 0)
(2.10166 -0.0125017 0)
(2.14286 -0.0103477 0)
(2.19046 -0.0128534 0)
(0.933503 -0.0317783 0)
(1.0567 -0.0587098 0)
(1.23664 -0.0688995 0)
(1.42155 -0.0644836 0)
(1.58551 -0.0618112 0)
(1.7344 -0.0589647 0)
(1.87129 -0.0555623 0)
(1.996 -0.0521746 0)
(2.109 -0.048932 0)
(2.21133 -0.0458419 0)
(2.30396 -0.0429186 0)
(2.38775 -0.0401479 0)
(2.46342 -0.0374877 0)
(2.53159 -0.0348588 0)
(2.59267 -0.0322007 0)
(2.64702 -0.0290668 0)
(2.69414 -0.0260652 0)
(2.73598 -0.0159489 0)
(1.39962 -0.0846817 0)
(1.49179 -0.105677 0)
(1.65465 -0.107235 0)
(1.82259 -0.101938 0)
(1.97266 -0.0979859 0)
(2.11036 -0.0936477 0)
(2.23772 -0.0887351 0)
(2.35446 -0.0837911 0)
(2.46089 -0.0789884 0)
(2.55781 -0.0743731 0)
(2.64596 -0.069971 0)
(2.72603 -0.0657629 0)
(2.79862 -0.0616894 0)
(2.86427 -0.0576433 0)
(2.92337 -0.0534935 0)
(2.97614 -0.0488207 0)
(3.02278 -0.0436046 0)
(3.06255 -0.0341038 0)
(1.89741 -0.115424 0)
(1.94623 -0.143307 0)
(2.0752 -0.14498 0)
(2.21747 -0.140762 0)
(2.34796 -0.135773 0)
(2.46971 -0.130038 0)
(2.58349 -0.123687 0)
(2.68863 -0.117198 0)
(2.78519 -0.110809 0)
(2.87366 -0.104623 0)
(2.95454 -0.0986805 0)
(3.02831 -0.0929641 0)
(3.09547 -0.0874026 0)
(3.15641 -0.0818661 0)
(3.2115 -0.0761734 0)
(3.2609 -0.0699023 0)
(3.30514 -0.0627632 0)
(3.34266 -0.0517526 0)
(2.43108 -0.12583 0)
(2.4405 -0.16989 0)
(2.5288 -0.177408 0)
(2.64001 -0.176166 0)
(2.74679 -0.171223 0)
(2.849 -0.164721 0)
(2.94614 -0.157366 0)
(3.03697 -0.149665 0)
(3.1212 -0.141948 0)
(3.19898 -0.134388 0)
(3.27054 -0.127059 0)
(3.33616 -0.119955 0)
(3.39617 -0.113002 0)
(3.45086 -0.106061 0)
(3.50053 -0.0989216 0)
(3.54528 -0.0911753 0)
(3.58596 -0.0823871 0)
(3.62048 -0.0702805 0)
(2.99683 -0.123683 0)
(2.97697 -0.185367 0)
(3.02468 -0.201456 0)
(3.10202 -0.204945 0)
(3.18208 -0.201565 0)
(3.26194 -0.195245 0)
(3.33992 -0.18754 0)
(3.41419 -0.179146 0)
(3.48402 -0.170522 0)
(3.54919 -0.161935 0)
(3.60968 -0.153505 0)
(3.66556 -0.145253 0)
(3.71696 -0.137119 0)
(3.76406 -0.128967 0)
(3.80708 -0.120581 0)
(3.84609 -0.111593 0)
(3.8821 -0.101545 0)
(3.91256 -0.0888514 0)
(3.58832 -0.114508 0)
(3.55089 -0.190581 0)
(3.5632 -0.215887 0)
(3.60677 -0.225309 0)
(3.65873 -0.224995 0)
(3.71441 -0.219944 0)
(3.77137 -0.212667 0)
(3.82731 -0.204206 0)
(3.88104 -0.195191 0)
(3.93202 -0.186005 0)
(3.97995 -0.176839 0)
(4.02469 -0.167754 0)
(4.06619 -0.158718 0)
(4.10452 -0.149614 0)
(4.13978 -0.140247 0)
(4.17202 -0.130308 0)
(4.20232 -0.1194 0)
(4.22762 -0.106485 0)
(4.1988 -0.101766 0)
(4.15397 -0.187072 0)
(4.13918 -0.2207 0)
(4.15217 -0.2363 0)
(4.17666 -0.240126 0)
(4.20774 -0.237376 0)
(4.24278 -0.231341 0)
(4.27929 -0.223492 0)
(4.31577 -0.214662 0)
(4.35138 -0.205368 0)
(4.3856 -0.19589 0)
(4.41807 -0.186346 0)
(4.44862 -0.176745 0)
(4.47716 -0.167007 0)
(4.50372 -0.156975 0)
(4.52827 -0.146413 0)
(4.55189 -0.135025 0)
(4.571 -0.122176 0)
(4.82185 -0.0878083 0)
(4.77662 -0.176872 0)
(4.74389 -0.216836 0)
(4.73189 -0.237816 0)
(4.73176 -0.246109 0)
(4.73953 -0.246386 0)
(4.753 -0.242306 0)
(4.76994 -0.23572 0)
(4.78873 -0.227661 0)
(4.80838 -0.218779 0)
(4.8282 -0.209451 0)
(4.8477 -0.199865 0)
(4.86655 -0.190082 0)
(4.88455 -0.180072 0)
(4.90167 -0.16973 0)
(4.91777 -0.1589 0)
(4.93391 -0.147397 0)
(4.94597 -0.134873 0)
(5.45146 -0.0741083 0)
(5.4095 -0.162006 0)
(5.36681 -0.205819 0)
(5.33652 -0.230632 0)
(5.31633 -0.242881 0)
(5.30381 -0.246394 0)
(5.29756 -0.2447 0)
(5.29595 -0.239875 0)
(5.29759 -0.233094 0)
(5.30148 -0.22511 0)
(5.30686 -0.216387 0)
(5.31317 -0.207185 0)
(5.32002 -0.197623 0)
(5.32712 -0.187725 0)
(5.33434 -0.177448 0)
(5.3415 -0.166713 0)
(5.34959 -0.155444 0)
(5.35399 -0.143488 0)
(6.08167 -0.0613935 0)
(6.0441 -0.144166 0)
(5.99713 -0.189309 0)
(5.95492 -0.216144 0)
(5.92003 -0.231224 0)
(5.89152 -0.237593 0)
(5.86878 -0.238306 0)
(5.85094 -0.235451 0)
(5.83704 -0.230264 0)
(5.82627 -0.22354 0)
(5.81796 -0.215801 0)
(5.81157 -0.207361 0)
(5.80668 -0.198394 0)
(5.80298 -0.188979 0)
(5.8003 -0.179131 0)
(5.79838 -0.168838 0)
(5.79818 -0.158122 0)
(5.79462 -0.146959 0)
(6.65461 -0.0506013 0)
(6.62055 -0.12619 0)
(6.57304 -0.17056 0)
(6.52476 -0.197737 0)
(6.48111 -0.214187 0)
(6.44228 -0.222436 0)
(6.40811 -0.224981 0)
(6.37836 -0.223793 0)
(6.35257 -0.220089 0)
(6.3302 -0.21465 0)
(6.31075 -0.208006 0)
(6.29379 -0.2005 0)
(6.27896 -0.192338 0)
(6.26597 -0.183639 0)
(6.25464 -0.174463 0)
(6.24468 -0.164851 0)
(6.23704 -0.15486 0)
(6.22625 -0.144664 0)
(7.20973 -0.0406535 0)
(7.18016 -0.107376 0)
(7.13446 -0.14958 0)
(7.08341 -0.176101 0)
(7.03443 -0.192928 0)
(6.98878 -0.202296 0)
(6.94656 -0.206166 0)
(6.90793 -0.206308 0)
(6.87285 -0.203897 0)
(6.84109 -0.199675 0)
(6.81238 -0.194144 0)
(6.78642 -0.187649 0)
(6.76295 -0.180416 0)
(6.74174 -0.172587 0)
(6.72264 -0.164253 0)
(6.70536 -0.155493 0)
(6.6908 -0.146375 0)
(6.67337 -0.137286 0)
(7.81811 -0.0310642 0)
(7.79338 -0.0861098 0)
(7.75172 -0.123815 0)
(7.70082 -0.148261 0)
(7.64924 -0.164287 0)
(7.59951 -0.173907 0)
(7.55195 -0.178549 0)
(7.50693 -0.179656 0)
(7.46475 -0.17831 0)
(7.42548 -0.175202 0)
(7.38906 -0.170791 0)
(7.35534 -0.165398 0)
(7.32421 -0.159246 0)
(7.29552 -0.152488 0)
(7.26919 -0.145232 0)
(7.24496 -0.137576 0)
(7.22368 -0.129612 0)
(7.19986 -0.121808 0)
(8.45855 -0.0222898 0)
(8.43893 -0.0637473 0)
(8.40342 -0.0942194 0)
(8.35608 -0.114626 0)
(8.30534 -0.128258 0)
(8.25481 -0.136855 0)
(8.20523 -0.141386 0)
(8.1571 -0.142852 0)
(8.11096 -0.142129 0)
(8.06714 -0.139819 0)
(8.02574 -0.136322 0)
(7.98677 -0.13192 0)
(7.95022 -0.12682 0)
(7.91604 -0.121173 0)
(7.88421 -0.115092 0)
(7.85454 -0.108679 0)
(7.82782 -0.102029 0)
(7.79894 -0.0956326 0)
(9.08866 -0.0143648 0)
(9.07382 -0.0417175 0)
(9.04561 -0.0628139 0)
(9.00496 -0.077147 0)
(8.95895 -0.0865626 0)
(8.91166 -0.0924309 0)
(8.86417 -0.0954435 0)
(8.81703 -0.0962112 0)
(8.77093 -0.095328 0)
(8.7264 -0.0932406 0)
(8.68374 -0.0902462 0)
(8.64307 -0.0865547 0)
(8.60447 -0.0823265 0)
(8.56797 -0.0776862 0)
(8.53361 -0.0727352 0)
(8.50125 -0.0675696 0)
(8.47162 -0.0622584 0)
(8.44038 -0.0573098 0)
(9.63295 -0.00706655 0)
(9.6217 -0.0206877 0)
(9.59987 -0.0313657 0)
(9.56659 -0.038337 0)
(9.52746 -0.0423628 0)
(9.48643 -0.0442745 0)
(9.44471 -0.0445227 0)
(9.40274 -0.0434461 0)
(9.3611 -0.0413873 0)
(9.32038 -0.0386298 0)
(9.28093 -0.0353693 0)
(9.24296 -0.0317427 0)
(9.20659 -0.0278581 0)
(9.17191 -0.0238064 0)
(9.13898 -0.0196608 0)
(9.10773 -0.015502 0)
(9.07871 -0.0113442 0)
(9.04892 -0.00768148 0)
(9.96404 0.000114513 0)
(9.95459 0.000184013 0)
(9.93649 0.000657308 0)
(9.90812 0.00191697 0)
(9.87423 0.00387516 0)
(9.83859 0.00634058 0)
(9.80247 0.0092089 0)
(9.76622 0.0124085 0)
(9.7303 0.0158554 0)
(9.6952 0.0194687 0)
(9.66123 0.023186 0)
(9.62855 0.0269574 0)
(9.59723 0.030737 0)
(9.5673 0.0344765 0)
(9.53879 0.0381336 0)
(9.51165 0.0416444 0)
(9.48606 0.0450335 0)
(9.461 0.0478852 0)
(9.87499 0.00748082 0)
(9.86688 0.0218198 0)
(9.84987 0.0342477 0)
(9.8225 0.0444616 0)
(9.7896 0.0528858 0)
(9.75499 0.0600029 0)
(9.71995 0.0661098 0)
(9.68486 0.0714218 0)
(9.65017 0.0761355 0)
(9.6164 0.0804101 0)
(9.58386 0.0843531 0)
(9.55269 0.0880328 0)
(9.52295 0.0914914 0)
(9.49465 0.0947519 0)
(9.46779 0.0978231 0)
(9.44236 0.100686 0)
(9.4181 0.103379 0)
(9.39605 0.10562 0)
(9.28437 0.0159254 0)
(9.27065 0.046218 0)
(9.24579 0.071216 0)
(9.20981 0.0904516 0)
(9.16898 0.105284 0)
(9.12728 0.116916 0)
(9.08579 0.12603 0)
(9.04492 0.133166 0)
(9.00521 0.138838 0)
(8.96715 0.143452 0)
(8.93101 0.147284 0)
(8.89686 0.150525 0)
(8.86472 0.153314 0)
(8.83455 0.155751 0)
(8.80628 0.157907 0)
(8.77987 0.15983 0)
(8.75483 0.16157 0)
(8.73318 0.162981 0)
(8.47101 0.0260965 0)
(8.45236 0.0738263 0)
(8.41971 0.110377 0)
(8.37626 0.136923 0)
(8.32997 0.156583 0)
(8.28456 0.171205 0)
(8.24072 0.181821 0)
(8.19879 0.189389 0)
(8.15924 0.194771 0)
(8.12236 0.198591 0)
(8.0882 0.201276 0)
(8.05668 0.203133 0)
(8.02768 0.204392 0)
(8.00107 0.205224 0)
(7.97667 0.205753 0)
(7.95439 0.206078 0)
(7.93369 0.206257 0)
(7.91661 0.206248 0)
(7.51239 0.0385288 0)
(7.4866 0.104519 0)
(7.44645 0.150253 0)
(7.39955 0.181392 0)
(7.35395 0.20338 0)
(7.31183 0.218515 0)
(7.27317 0.228326 0)
(7.23806 0.23435 0)
(7.2066 0.237801 0)
(7.17867 0.239481 0)
(7.15401 0.239929 0)
(7.13233 0.239538 0)
(7.11333 0.238591 0)
(7.09674 0.237291 0)
(7.08229 0.235782 0)
(7.06978 0.234171 0)
(7.0587 0.232514 0)
(7.05078 0.230834 0)
(6.48931 0.0542294 0)
(6.45655 0.136915 0)
(6.41295 0.186971 0)
(6.37064 0.218583 0)
(6.33489 0.239426 0)
(6.30527 0.252082 0)
(6.28106 0.25879 0)
(6.26184 0.261633 0)
(6.24703 0.261998 0)
(6.23596 0.260739 0)
(6.22801 0.258437 0)
(6.22268 0.255505 0)
(6.21952 0.252227 0)
(6.21815 0.248794 0)
(6.21825 0.245336 0)
(6.21959 0.241941 0)
(6.22172 0.238656 0)
(6.22605 0.235534 0)
(5.45712 0.073393 0)
(5.41829 0.1665 0)
(5.37868 0.214133 0)
(5.35277 0.241964 0)
(5.33864 0.258359 0)
(5.33247 0.266121 0)
(5.33271 0.268301 0)
(5.33809 0.267228 0)
(5.34724 0.264218 0)
(5.35905 0.260056 0)
(5.37278 0.255273 0)
(5.38782 0.250222 0)
(5.40373 0.245129 0)
(5.42018 0.240133 0)
(5.43691 0.235319 0)
(5.45375 0.23074 0)
(5.47036 0.226419 0)
(5.48789 0.222418 0)
(4.45282 0.0947798 0)
(4.41206 0.187418 0)
(4.39048 0.225946 0)
(4.3966 0.246411 0)
(4.41649 0.255939 0)
(4.44336 0.257846 0)
(4.47527 0.255601 0)
(4.51036 0.251218 0)
(4.54692 0.245679 0)
(4.5839 0.239577 0)
(4.62068 0.233311 0)
(4.65684 0.227123 0)
(4.6921 0.221152 0)
(4.72628 0.215475 0)
(4.75928 0.21013 0)
(4.79107 0.205132 0)
(4.82149 0.200484 0)
(4.85148 0.196248 0)
(3.50293 0.114454 0)
(3.47301 0.192926 0)
(3.48913 0.217657 0)
(3.5412 0.228899 0)
(3.60261 0.231477 0)
(3.6665 0.228846 0)
(3.73179 0.223844 0)
(3.79676 0.217738 0)
(3.86 0.21113 0)
(3.92088 0.20442 0)
(3.97913 0.19786 0)
(4.03463 0.191593 0)
(4.08735 0.185687 0)
(4.13735 0.180172 0)
(4.18472 0.175049 0)
(4.2296 0.17031 0)
(4.272 0.165942 0)
(4.31273 0.162017 0)
(2.62982 0.122984 0)
(2.63207 0.176392 0)
(2.70178 0.187976 0)
(2.8047 0.191094 0)
(2.90735 0.189123 0)
(3.00606 0.184607 0)
(3.10163 0.178935 0)
(3.19307 0.172753 0)
(3.27956 0.166462 0)
(3.36096 0.160315 0)
(3.4374 0.15446 0)
(3.50911 0.148968 0)
(3.57634 0.143865 0)
(3.63936 0.139152 0)
(3.69847 0.134812 0)
(3.75398 0.130824 0)
(3.80603 0.127166 0)
(3.85541 0.123931 0)
(1.85178 0.104826 0)
(1.90639 0.134441 0)
(2.03033 0.141902 0)
(2.17814 0.14052 0)
(2.31588 0.137045 0)
(2.44344 0.132931 0)
(2.56369 0.128113 0)
(2.67652 0.123003 0)
(2.7816 0.117957 0)
(2.87921 0.113132 0)
(2.9699 0.108598 0)
(3.05417 0.104393 0)
(3.13254 0.100521 0)
(3.2055 0.0969684 0)
(3.2735 0.0937153 0)
(3.33699 0.090738 0)
(3.39627 0.0880013 0)
(3.45211 0.0856121 0)
(1.17533 0.0416902 0)
(1.28238 0.066107 0)
(1.43869 0.0889894 0)
(1.6166 0.0891808 0)
(1.78036 0.0862349 0)
(1.92918 0.083337 0)
(2.06745 0.0798405 0)
(2.19587 0.0761251 0)
(2.31436 0.0725363 0)
(2.4235 0.0691583 0)
(2.52413 0.0660166 0)
(2.61707 0.0631266 0)
(2.70302 0.0604851 0)
(2.78263 0.0580757 0)
(2.8565 0.0558781 0)
(2.9252 0.0538753 0)
(2.98912 0.0520056 0)
(3.04899 0.0503682 0)
(0.469484 0.226529 0)
(0.642365 0.0691637 0)
(0.788943 0.0480269 0)
(0.972463 0.044412 0)
(1.14914 0.0429742 0)
(1.30918 0.0416819 0)
(1.4569 0.0396494 0)
(1.59329 0.0373344 0)
(1.71813 0.0351167 0)
(1.8322 0.033069 0)
(1.93664 0.031187 0)
(2.03251 0.0294688 0)
(2.12066 0.0279077 0)
(2.20189 0.0264909 0)
(2.27689 0.0252024 0)
(2.34629 0.0240352 0)
(2.41063 0.0229361 0)
(2.47019 0.0219839 0)
(0.00997334 -0.021217 -2.68919e-20)
(0.0301551 -0.0328306 2.62073e-20)
(0.0500058 -0.0321508 0)
(0.0657156 -0.0255191 0)
(0.0749783 -0.0162665 0)
(0.0776826 -0.00649509 -2.46432e-20)
(0.0737941 0.00216981 0)
(0.0650605 0.00864794 0)
(0.0527125 0.0128229 0)
(0.0376511 0.0152723 0)
(0.0204859 0.016775 2.42258e-20)
(0.0014835 0.0179749 0)
(-0.0193544 0.0193138 0)
(-0.042202 0.0210169 0)
(-0.0672832 0.023132 0)
(-0.0947872 0.0256115 2.25562e-20)
(-0.124854 0.0283681 0)
(-0.157558 0.031302 0)
(-0.1929 0.0343083 0)
(-0.23081 0.037281 0)
(-0.271149 0.0401181 0)
(-0.313717 0.0427274 0)
(-0.358264 0.0450317 0)
(-0.404503 0.046973 1.92098e-20)
(-0.452122 0.0485138 -1.88401e-20)
(-0.500799 0.0496382 1.84873e-20)
(-0.550215 0.0503505 1.8152e-20)
(-0.600074 0.0506753 0)
(-0.650098 0.0506574 0)
(-0.700017 0.0503567 -1.72513e-20)
(-0.74961 0.049835 -1.6983e-20)
(-0.798776 0.049137 0)
(-0.847349 0.0482821 0)
(-0.895213 0.047299 -1.62648e-20)
(-0.942272 0.0462146 0)
(-0.988447 0.0450537 0)
(-1.03368 0.0438379 1.56536e-20)
(-1.07793 0.0425855 0)
(-1.12115 0.0413112 1.52914e-20)
(-1.16333 0.0400267 3.02422e-20)
(-1.20446 0.0387411 0)
(-1.24451 0.0374606 0)
(-1.28349 0.03619 0)
(-1.3214 0.034932 0)
(-1.35823 0.0336882 0)
(-1.39399 0.0324594 2.83991e-20)
(-1.42866 0.0312456 2.81132e-20)
(-1.46226 0.0300462 2.78305e-20)
(-1.49477 0.0288604 0)
(-1.52621 0.0276875 -2.7271e-20)
(-1.55656 0.0265263 0)
(-1.58581 0.025376 2.67141e-20)
(-1.61397 0.0242355 2.64348e-20)
(-1.64103 0.0231043 0)
(-1.66698 0.0219814 0)
(-1.69181 0.0208666 0)
(-1.71551 0.0197591 2.52976e-20)
(-1.73808 0.0186587 0)
(-1.75951 0.0175649 0)
(-1.77978 0.0164773 0)
(-1.7989 0.0153954 0)
(-1.81685 0.0143184 0)
(-1.83362 0.0132452 0)
(-1.8492 0.0121744 0)
(-1.86358 0.0111038 0)
(-1.87676 0.010031 -2.24926e-20)
(-1.88872 0.0089524 0)
(-1.89944 0.00786408 0)
(-1.90891 0.00676108 2.14497e-20)
(-1.9171 0.00563854 2.10884e-20)
(-1.92398 0.00449404 0)
(-1.92953 0.00333391 -2.03452e-20)
(-1.9337 0.00218144 1.99634e-20)
(-1.93643 0.00107653 0)
(-1.93764 6.61731e-05 -1.91756e-20)
(-1.93769 -0.000796455 0)
(-1.93663 -0.00157345 0)
(-1.93448 -0.00231053 1.79268e-20)
(-1.93126 -0.00302421 0)
(-1.92697 -0.00372121 -1.70528e-20)
(-1.92164 -0.00440421 0)
(-1.91527 -0.00507426 1.61457e-20)
(-1.90786 -0.00573171 1.56798e-20)
(-1.89941 -0.00637662 1.52058e-20)
(-1.88994 -0.00700893 2.94476e-20)
(-1.87944 -0.00762854 -2.84678e-20)
(-1.86793 -0.00823535 0)
(-1.85542 -0.00882926 0)
(-1.84191 -0.00941018 0)
(-1.82742 -0.00997804 -2.43959e-20)
(-1.81194 -0.0105328 -2.33412e-20)
(-1.79549 -0.0110744 2.22726e-20)
(-1.77809 -0.0116029 0)
(-1.75974 -0.0121181 -2.00951e-20)
(-1.74045 -0.0126202 -1.89871e-20)
(-1.72023 -0.013109 -1.78668e-20)
(-1.6991 -0.0135847 0)
(-1.67706 -0.0140471 0)
(-1.65414 -0.0144963 0)
(-1.63034 -0.0149323 -1.32735e-20)
(-1.60568 -0.0153551 0)
(-1.58017 -0.0157646 0)
(-1.55382 -0.0161609 9.72606e-21)
(-1.52665 -0.0165439 0)
(-1.49868 -0.0169137 0)
(-1.46992 -0.0172701 6.1089e-21)
(-1.44038 -0.0176132 0)
(-1.41008 -0.0179428 0)
(-1.37904 -0.0182589 -2.44008e-21)
(-1.34728 -0.0185614 -1.20899e-21)
(-1.31481 -0.0188503 0)
(-1.28166 -0.0191254 -1.26092e-21)
(-1.24783 -0.0193867 0)
(-1.21336 -0.0196341 3.73593e-21)
(-1.17825 -0.0198675 0)
(-1.14254 -0.0200868 6.2096e-21)
(-1.10624 -0.0202918 7.44387e-21)
(-1.06937 -0.0204825 0)
(-1.03196 -0.0206589 0)
(-0.994027 -0.0208208 0)
(-0.955597 -0.020968 0)
(-0.916692 -0.0211007 0)
(-0.877337 -0.0212187 0)
(-0.837557 -0.0213219 0)
(-0.797378 -0.0214104 1.71441e-20)
(-0.756825 -0.0214841 -1.83219e-20)
(-0.715924 -0.021543 0)
(-0.674702 -0.0215872 0)
(-0.633185 -0.0216166 0)
(-0.591401 -0.0216313 0)
(-0.549378 -0.0216313 -4.80714e-20)
(-0.507142 -0.0216168 0)
(-0.464721 -0.0215876 5.24482e-20)
(-0.422145 -0.0215439 -5.45887e-20)
(-0.379442 -0.0214857 0)
(-0.33664 -0.0214129 0)
(-0.293769 -0.0213254 0)
(-0.250859 -0.0212228 6.27983e-20)
(-0.207942 -0.0211046 6.4756e-20)
(-0.16505 -0.0209686 0)
(-0.122217 -0.020811 6.85497e-20)
(-0.0794734 -0.0206301 7.03841e-20)
(-0.0368504 -0.0204211 -7.21763e-20)
(0.00561349 -0.0201469 0)
(0.0478374 -0.0197882 0)
(0.0898371 -0.0194065 -7.52928e-20)
(0.131591 -0.0190319 0)
(0.173085 -0.0186662 0)
(0.214313 -0.0183066 0)
(0.255266 -0.017951 0)
(0.295935 -0.0175982 7.80865e-20)
(0.336308 -0.0172477 7.85018e-20)
(0.376375 -0.0168994 0)
(0.416125 -0.0165532 7.92047e-20)
(0.455547 -0.0162096 0)
(0.494632 -0.0158689 0)
(0.533371 -0.0155314 7.99667e-20)
(0.571757 -0.0151976 0)
(0.609785 -0.0148679 8.0299e-20)
(0.647448 -0.0145426 0)
(0.684744 -0.0142221 0)
(0.721669 -0.0139066 8.05641e-20)
(0.758221 -0.0135961 0)
(0.794398 -0.0132906 8.06008e-20)
(0.830198 -0.0129897 0)
(0.865617 -0.0126928 0)
(0.900651 -0.0123989 0)
(0.935288 -0.0121059 -8.03833e-20)
(0.969513 -0.0118111 0)
(1.0033 -0.0115101 8.01502e-20)
(1.0366 -0.0111962 0)
(1.06935 -0.0108587 0)
(1.10142 -0.0104802 0)
(1.13262 -0.0100311 0)
(1.16266 -0.00945376 0)
(1.1908 -0.0086403 0)
(1.21632 -0.00726722 0)
(1.23456 -0.00455032 -1.58411e-19)
(1.24833 0.00265011 0)
(1.2019 0.0178102 0)
(0.0102293 -0.0634506 7.91828e-20)
(0.0217599 -0.0646178 -7.46164e-20)
(0.0245515 -0.0466889 0)
(0.0221626 -0.0268987 4.43507e-20)
(0.0155518 -0.0078415 0)
(0.00542153 0.00946526 2.0994e-20)
(-0.00764018 0.0242888 -4.10972e-20)
(-0.0238953 0.0363132 -4.02479e-20)
(-0.0433586 0.0458322 0)
(-0.0660302 0.0535261 -3.86804e-20)
(-0.0918624 0.0601613 -1.8989e-20)
(-0.12076 0.0663678 0)
(-0.152591 0.0725521 0)
(-0.1872 0.0789068 0)
(-0.224417 0.0854475 0)
(-0.264054 0.0920702 -1.7094e-20)
(-0.305887 0.0986108 0)
(-0.349656 0.104885 3.26204e-20)
(-0.395065 0.110715 0)
(-0.441793 0.115941 0)
(-0.489504 0.120436 -3.05482e-20)
(-0.537862 0.124109 0)
(-0.586546 0.126907 2.92919e-20)
(-0.635256 0.128814 -1.43954e-20)
(-0.683725 0.129851 1.41168e-20)
(-0.731724 0.130066 -1.38536e-20)
(-0.779065 0.129531 -1.36057e-20)
(-0.825599 0.128335 0)
(-0.871216 0.12658 0)
(-0.915832 0.124375 1.29479e-20)
(-0.959384 0.121824 -1.26837e-20)
(-1.00183 0.119006 0)
(-1.04314 0.115985 0)
(-1.0833 0.112815 1.22343e-20)
(-1.12233 0.109546 0)
(-1.16022 0.106218 0)
(-1.19702 0.102864 -1.17876e-20)
(-1.23272 0.0995105 0)
(-1.26735 0.0961771 1.14463e-20)
(-1.30094 0.0928779 -2.27848e-20)
(-1.3335 0.0896226 0)
(-1.36506 0.0864173 0)
(-1.39562 0.0832648 -4.39808e-20)
(-1.4252 0.080166 -4.35217e-20)
(-1.4538 0.0771199 -4.30704e-20)
(-1.48145 0.0741246 2.12424e-20)
(-1.50814 0.0711774 -2.11618e-20)
(-1.53387 0.0682751 -6.26911e-20)
(-1.55865 0.0654146 4.13148e-20)
(-1.58248 0.0625926 2.0505e-20)
(-1.60536 0.0598063 0)
(-1.62728 0.0570529 -2.00674e-20)
(-1.64824 0.0543301 1.97321e-20)
(-1.66823 0.0516359 0)
(-1.68725 0.0489689 0)
(-1.7053 0.0463277 0)
(-1.72236 0.0437115 -1.89477e-20)
(-1.73843 0.0411196 0)
(-1.75351 0.0385518 3.68831e-20)
(-1.76759 0.0360077 0)
(-1.78066 0.0334874 3.59371e-20)
(-1.79272 0.0309908 0)
(-1.80375 0.0285177 -3.49605e-20)
(-1.81377 0.0260679 0)
(-1.82276 0.023641 3.395e-20)
(-1.83072 0.021236 -1.67004e-20)
(-1.83765 0.0188519 0)
(-1.84356 0.0164871 -3.23652e-20)
(-1.84844 0.01414 -1.59122e-20)
(-1.85232 0.0118085 -1.56294e-20)
(-1.85521 0.00949027 0)
(-1.85715 0.00718724 -1.50655e-20)
(-1.85819 0.00491542 -1.47512e-20)
(-1.85842 0.00271227 0)
(-1.85792 0.00061848 1.41346e-20)
(-1.85648 -0.00134615 -2.76784e-20)
(-1.85403 -0.00321998 0)
(-1.85058 -0.00503235 -1.31681e-20)
(-1.84609 -0.00679742 0)
(-1.84058 -0.00852204 3.75666e-20)
(-1.83404 -0.010209 0)
(-1.82648 -0.0118594 -3.55078e-20)
(-1.8179 -0.0134734 -1.14526e-20)
(-1.8083 -0.0150508 1.1199e-20)
(-1.79769 -0.0165913 2.16862e-20)
(-1.78607 -0.0180946 -2.09643e-20)
(-1.77346 -0.0195602 0)
(-1.75985 -0.020988 0)
(-1.74527 -0.0223778 0)
(-1.72971 -0.0237293 5.33514e-20)
(-1.71318 -0.0250424 1.69031e-20)
(-1.6957 -0.0263172 -1.61126e-20)
(-1.67727 -0.0275537 0)
(-1.65791 -0.0287517 -1.48559e-20)
(-1.63762 -0.0299115 1.36943e-20)
(-1.61642 -0.0310331 1.28736e-20)
(-1.59432 -0.0321166 0)
(-1.57132 -0.0331621 0)
(-1.54745 -0.0341697 0)
(-1.52271 -0.0351394 9.52727e-21)
(-1.49712 -0.0360716 0)
(-1.47069 -0.0369663 -1.60796e-20)
(-1.44344 -0.0378236 -2.13314e-20)
(-1.41537 -0.0386436 1.26517e-20)
(-1.38652 -0.0394267 0)
(-1.35688 -0.0401727 4.83354e-21)
(-1.32647 -0.0408818 0)
(-1.29532 -0.0415541 5.71551e-21)
(-1.26344 -0.0421896 -2.23268e-21)
(-1.23084 -0.0427884 -1.36209e-21)
(-1.19754 -0.0433506 0)
(-1.16357 -0.0438762 2.17298e-21)
(-1.12894 -0.0443654 -3.02688e-21)
(-1.09366 -0.0448181 -2.6498e-21)
(-1.05777 -0.0452343 0)
(-1.02128 -0.0456142 -4.39794e-21)
(-0.984207 -0.0459578 -1.52683e-20)
(-0.946579 -0.0462652 0)
(-0.908415 -0.0465365 -1.34563e-20)
(-0.869739 -0.0467719 -1.51733e-20)
(-0.830574 -0.0469715 -1.68813e-20)
(-0.790944 -0.0471353 0)
(-0.750872 -0.0472638 0)
(-0.710384 -0.0473571 0)
(-0.669506 -0.0474156 1.15264e-20)
(-0.628261 -0.0474394 1.29006e-20)
(-0.586677 -0.047429 0)
(-0.54478 -0.0473848 2.85001e-20)
(-0.502597 -0.0473072 3.00994e-20)
(-0.460154 -0.0471966 0)
(-0.417479 -0.0470536 3.3785e-20)
(-0.3746 -0.0468787 6.95706e-20)
(-0.331543 -0.0466723 -3.68428e-20)
(-0.288338 -0.0464349 -3.72748e-20)
(-0.245012 -0.046167 0)
(-0.201594 -0.0458688 0)
(-0.158113 -0.0455404 0)
(-0.114598 -0.0451811 -4.40889e-20)
(-0.0710781 -0.04479 4.44481e-20)
(-0.0275841 -0.0443658 9.26217e-20)
(0.0158538 -0.0439063 -4.79461e-20)
(0.0592039 -0.0434117 4.78569e-20)
(0.10244 -0.0428878 4.96365e-20)
(0.145534 -0.0423327 0)
(0.18846 -0.041735 0)
(0.231211 -0.0411084 -5.1046e-20)
(0.273762 -0.0404737 0)
(0.316093 -0.0398382 0)
(0.358187 -0.0392023 1.0708e-19)
(0.400029 -0.0385652 0)
(0.441605 -0.0379262 5.43539e-20)
(0.482903 -0.0372852 -5.56689e-20)
(0.523909 -0.0366426 0)
(0.564614 -0.0359991 5.595e-20)
(0.605005 -0.0353555 0)
(0.645074 -0.034713 0)
(0.684813 -0.0340725 -5.79311e-20)
(0.724213 -0.0334352 1.1597e-19)
(0.76327 -0.0328021 -5.86439e-20)
(0.801979 -0.0321743 0)
(0.840336 -0.0315526 0)
(0.878339 -0.0309377 5.89696e-20)
(0.915985 -0.0303299 0)
(0.953273 -0.0297292 5.94768e-20)
(0.990202 -0.0291349 0)
(1.02677 -0.0285458 0)
(1.06297 -0.0279593 0)
(1.09879 -0.0273712 6.06948e-20)
(1.13422 -0.026775 0)
(1.16923 -0.0261607 -6.093e-20)
(1.20377 -0.0255124 0)
(1.23779 -0.0248053 0)
(1.27116 -0.0239987 1.21967e-19)
(1.3037 -0.0230239 -1.22115e-19)
(1.33514 -0.02175 0)
(1.36489 -0.0199333 0)
(1.39233 -0.0169335 0)
(1.41474 -0.0115613 3.7006e-19)
(1.43477 0.000848645 0)
(1.43718 0.0258496 -2.50355e-19)
(0.00255483 -0.0821302 -1.13204e-22)
(-0.000819217 -0.060462 9.56228e-20)
(-0.010867 -0.0311108 0)
(-0.0234716 -0.00417262 -7.97239e-20)
(-0.038601 0.0202005 0)
(-0.0559708 0.0420993 0)
(-0.075512 0.0615935 3.98545e-23)
(-0.0973459 0.0787436 3.39619e-20)
(-0.121649 0.0937586 3.31307e-20)
(-0.148555 0.107046 3.24322e-20)
(-0.178091 0.119101 0)
(-0.210158 0.130363 0)
(-0.244558 0.141117 -3.02726e-20)
(-0.281021 0.151477 -5.91702e-20)
(-0.319237 0.161407 5.78164e-20)
(-0.358877 0.170776 0)
(-0.39961 0.179408 5.51882e-20)
(-0.441109 0.187118 -2.69838e-20)
(-0.483067 0.193744 0)
(-0.525203 0.199164 5.1503e-20)
(-0.567268 0.203303 2.51873e-20)
(-0.609055 0.206134 -4.92548e-20)
(-0.650394 0.207679 -2.41023e-20)
(-0.691157 0.208002 0)
(-0.731254 0.2072 4.62304e-20)
(-0.770624 0.205391 4.5316e-20)
(-0.809233 0.202711 0)
(-0.847066 0.1993 4.36221e-20)
(-0.88412 0.195299 0)
(-0.920399 0.190839 4.20954e-20)
(-0.955907 0.186039 2.07047e-20)
(-0.99065 0.180996 0)
(-1.02464 0.175791 0)
(-1.05788 0.170493 0)
(-1.09038 0.165154 0)
(-1.12216 0.159819 0)
(-1.15322 0.154517 0)
(-1.18356 0.149274 3.72769e-20)
(-1.2132 0.144104 -5.5206e-20)
(-1.24212 0.139018 0)
(-1.27034 0.134021 0)
(-1.29784 0.129113 0)
(-1.32462 0.124294 8.09054e-23)
(-1.35067 0.119561 3.46017e-20)
(-1.376 0.114908 6.8282e-20)
(-1.40058 0.110331 -6.74575e-20)
(-1.42441 0.105824 -3.32808e-20)
(-1.44748 0.101381 3.29631e-20)
(-1.46977 0.0969972 -8.19604e-23)
(-1.49128 0.0926679 3.20902e-20)
(-1.51199 0.0883887 0)
(-1.5319 0.0841559 3.13099e-20)
(-1.55097 0.0799663 -7.38149e-23)
(-1.56922 0.0758176 0)
(-1.58661 0.0717079 0)
(-1.60314 0.0676358 -2.97536e-20)
(-1.6188 0.0636007 0)
(-1.63357 0.0596022 0)
(-1.64745 0.0556403 2.85177e-20)
(-1.66042 0.0517155 5.63394e-20)
(-1.67247 0.0478283 -2.78092e-20)
(-1.68359 0.0439796 0)
(-1.69378 0.0401704 2.69792e-20)
(-1.70303 0.0364019 0)
(-1.71133 0.0326752 2.60824e-20)
(-1.71869 0.028992 2.56977e-20)
(-1.72508 0.025354 -5.04928e-20)
(-1.73053 0.0217638 -2.48002e-20)
(-1.73503 0.0182251 0)
(-1.73859 0.0147436 4.78289e-20)
(-1.74122 0.0113273 0)
(-1.74292 0.00798748 6.89778e-20)
(-1.74371 0.00473718 4.50589e-20)
(-1.74359 0.00158592 4.40944e-20)
(-1.74254 -0.00146825 -4.31162e-20)
(-1.74051 -0.00445444 6.31544e-20)
(-1.73749 -0.00738178 0)
(-1.73347 -0.0102508 0)
(-1.72847 -0.0130619 -3.90857e-20)
(-1.72247 -0.0158153 -5.70083e-20)
(-1.71547 -0.0185108 0)
(-1.70748 -0.0211476 1.78915e-20)
(-1.6985 -0.0237253 0)
(-1.68854 -0.0262431 -5.05476e-20)
(-1.67759 -0.0287003 1.75203e-22)
(-1.66567 -0.0310962 -1.85931e-22)
(-1.65279 -0.0334301 3.0401e-20)
(-1.63894 -0.0357018 0)
(-1.62413 -0.0379107 -2.81065e-20)
(-1.60838 -0.0400567 2.27263e-22)
(-1.59169 -0.0421395 0)
(-1.57407 -0.0441592 0)
(-1.55553 -0.0461156 0)
(-1.53608 -0.0480089 2.19154e-20)
(-1.51573 -0.0498391 0)
(-1.49449 -0.0516065 0)
(-1.47238 -0.0533111 0)
(-1.44939 -0.0549532 0)
(-1.42555 -0.0565329 0)
(-1.40087 -0.0580506 1.47754e-20)
(-1.37535 -0.0595063 0)
(-1.34902 -0.0609004 1.19213e-20)
(-1.32189 -0.0622332 1.06453e-20)
(-1.29396 -0.0635049 -9.36534e-21)
(-1.26526 -0.0647156 0)
(-1.2358 -0.0658658 -6.79599e-21)
(-1.2056 -0.0669555 0)
(-1.17466 -0.0679849 -4.21839e-21)
(-1.14301 -0.0689542 2.92815e-21)
(-1.11067 -0.0698634 5.67395e-21)
(-1.07765 -0.0707129 0)
(-1.04396 -0.0715027 -2.04156e-21)
(-1.00964 -0.0722331 -1.43936e-21)
(-0.974686 -0.0729041 0)
(-0.939131 -0.073516 -8.77851e-21)
(-0.902992 -0.0740688 -1.13241e-20)
(-0.866289 -0.0745628 2.11978e-20)
(-0.829043 -0.0749983 0)
(-0.791276 -0.0753755 9.86204e-21)
(-0.753011 -0.0756947 1.11144e-20)
(-0.714269 -0.0759561 3.62471e-20)
(-0.675075 -0.0761603 0)
(-0.635452 -0.0763076 0)
(-0.595424 -0.0763985 0)
(-0.555016 -0.0764337 1.64117e-20)
(-0.514253 -0.0764136 0)
(-0.47316 -0.076339 0)
(-0.431764 -0.0762107 -2.08002e-20)
(-0.39009 -0.0760294 -2.19596e-20)
(-0.348164 -0.075796 0)
(-0.306015 -0.0755114 0)
(-0.263667 -0.0751765 -5.07095e-20)
(-0.22115 -0.0747922 0)
(-0.178489 -0.0743595 5.50874e-20)
(-0.135712 -0.0738791 5.64237e-20)
(-0.0928476 -0.0733515 0)
(-0.0499223 -0.0727771 0)
(-0.00696455 -0.0721565 -6.25965e-20)
(0.0359976 -0.0714898 -7.71965e-22)
(0.0789363 -0.0707764 -7.58665e-22)
(0.121824 -0.0700164 0)
(0.164633 -0.0692118 -1.38269e-19)
(0.207341 -0.0683682 0)
(0.249928 -0.0674934 0)
(0.292386 -0.0665913 0)
(0.334697 -0.0656643 7.47864e-20)
(0.376834 -0.0647208 0)
(0.418774 -0.0637669 -1.53119e-19)
(0.460494 -0.0628047 -7.83532e-20)
(0.501976 -0.0618352 0)
(0.543204 -0.060859 -8.05102e-20)
(0.584164 -0.0598769 0)
(0.624843 -0.0588901 0)
(0.665229 -0.0578999 -2.49155e-19)
(0.705311 -0.0569081 1.67538e-19)
(0.74508 -0.0559164 0)
(0.784527 -0.0549266 1.70916e-19)
(0.823647 -0.0539407 -8.67497e-20)
(0.862433 -0.0529602 0)
(0.900881 -0.051987 0)
(0.938988 -0.0510224 0)
(0.976751 -0.0500674 -2.67532e-19)
(1.01417 -0.0491228 0)
(1.05124 -0.0481885 -9.06357e-20)
(1.08797 -0.0472636 0)
(1.12434 -0.0463459 0)
(1.16036 -0.0454314 0)
(1.19601 -0.0445135 0)
(1.23129 -0.043582 0)
(1.26616 -0.0426208 0)
(1.30059 -0.0416052 -1.8674e-19)
(1.33451 -0.0404964 0)
(1.36782 -0.0392316 -9.43786e-20)
(1.40036 -0.0377065 2.83455e-19)
(1.43188 -0.0357329 0)
(1.46194 -0.0329686 0)
(1.49008 -0.0286658 -1.91034e-19)
(1.5147 -0.0215025 -1.92766e-19)
(1.53787 -0.00772773 1.94199e-19)
(1.55247 0.0186217 1.96901e-19)
(-0.00713535 -0.0668523 -1.54285e-19)
(-0.0210985 -0.0322047 -1.37565e-19)
(-0.0389462 0.00208776 -8.03421e-20)
(-0.0582381 0.0325202 -3.62714e-20)
(-0.0790487 0.0601255 0)
(-0.101176 0.0853522 6.43714e-20)
(-0.124688 0.108374 -3.09585e-20)
(-0.149748 0.129299 0)
(-0.176502 0.148284 -2.92939e-20)
(-0.205032 0.165566 0)
(-0.235314 0.181414 5.57417e-20)
(-0.267224 0.196059 0)
(-0.300549 0.209634 2.65707e-20)
(-0.335023 0.222168 5.18641e-20)
(-0.370356 0.233602 -5.06123e-20)
(-0.406259 0.243824 0)
(-0.442463 0.252706 -4.81952e-20)
(-0.478728 0.260131 0)
(-0.514854 0.266022 0)
(-0.550683 0.270342 -4.48265e-20)
(-0.586097 0.273106 0)
(-0.621016 0.274371 -6.40758e-23)
(-0.655393 0.274234 0)
(-0.68921 0.272819 0)
(-0.722465 0.270269 6.57461e-23)
(-0.755172 0.266739 -3.91822e-20)
(-0.787351 0.262385 -3.84466e-20)
(-0.819023 0.257356 -3.76315e-20)
(-0.850211 0.251794 0)
(-0.880929 0.245825 -7.25037e-20)
(-0.911188 0.239561 0)
(-0.940994 0.233093 -3.49928e-20)
(-0.970349 0.226499 0)
(-0.999251 0.219841 0)
(-1.0277 0.213166 3.32862e-20)
(-1.05568 0.206513 0)
(-1.08318 0.199909 -3.22681e-20)
(-1.1102 0.193373 -5.83735e-24)
(-1.13672 0.186917 6.2667e-20)
(-1.16272 0.180549 -6.1767e-20)
(-1.18819 0.174271 0)
(-1.21311 0.168084 0)
(-1.23746 0.161984 -2.96074e-20)
(-1.26123 0.155967 0)
(-1.2844 0.150029 -2.88759e-20)
(-1.30695 0.144162 2.8499e-20)
(-1.32886 0.138362 2.81287e-20)
(-1.35011 0.132623 0)
(-1.37069 0.12694 -2.7404e-20)
(-1.39058 0.121308 -2.70478e-20)
(-1.40976 0.115723 5.33329e-20)
(-1.4282 0.110182 -2.6344e-20)
(-1.4459 0.104683 -2.59949e-20)
(-1.46284 0.0992237 0)
(-1.479 0.0938029 0)
(-1.49437 0.0884205 2.4952e-20)
(-1.50892 0.0830766 0)
(-1.52265 0.0777721 0)