/*--------------------------------*- C++ -*----------------------------------*\
| =========                 |                                                 |
| \\      /  F ield         | OpenFOAM: The Open Source CFD Toolbox           |
|  \\    /   O peration     | Version:  2412                                  |
|   \\  /    A nd           | Website:  www.openfoam.com                      |
|    \\/     M anipulation  |                                                 |
\*---------------------------------------------------------------------------*/
FoamFile
{
    version     2.0;
    format      ascii;
    arch        "LSB;label=32;scalar=64";
    class       volScalarField;
    location    "0.5";
    object      p;
}
// * * * * * * * * * * * * * * * * * * * * * * * * * * * * * * * * * * * * * //

dimensions      [0 2 -2 0 0 0 0];

internalField   nonuniform List<scalar> 
2200
(
3.1622
2.85893
2.42727
2.01022
1.75379
1.92824
2.46083
3.27186
4.31443
5.31343
5.32866
4.35473
3.32737
2.52373
1.99447
1.82129
2.07766
2.49448
2.9258
3.22887
5.77851
5.51171
4.99724
4.26069
3.51177
3.0215
3.22133
4.38543
5.92855
7.14079
7.15592
5.969
4.44247
3.2877
3.09083
3.58047
4.32841
5.06376
5.5774
5.84386
8.34732
8.19823
7.86584
7.28886
6.59951
5.98066
5.76328
6.32211
7.41482
8.38781
8.40433
7.45747
6.38125
5.82942
6.04775
6.66604
7.35428
7.93032
8.26208
8.41085
9.77368
9.69996
9.52671
9.26146
8.84688
8.22071
7.69251
7.62546
7.95665
8.36207
8.37878
8.00026
7.68425
7.75783
8.28907
8.9161
9.32984
9.59419
9.76692
9.84044
10.4686
10.4353
10.36
10.2228
10.0096
9.78111
9.49364
9.07393
8.88558
8.92774
8.94557
8.93396
9.13856
9.56683
9.85782
10.0867
10.2995
10.4364
10.5115
10.5447
10.7894
10.7706
10.7375
10.6784
10.5927
10.5006
10.4227
10.3824
10.3336
10.3334
10.354
10.3863
10.4558
10.5068
10.5895
10.6834
10.7699
10.8293
10.8626
10.8814
10.8764
10.8641
10.8466
10.8186
10.7822
10.7436
10.7197
10.7489
10.824
10.9284
10.9519
10.8871
10.8348
10.8197
10.8509
10.8931
10.9315
10.9605
10.9785
10.9913
10.8443
10.8358
10.825
10.8087
10.7882
10.7659
10.7484
10.7501
10.7846
10.8494
10.8768
10.8587
10.8546
10.8711
10.8991
10.9271
10.9511
10.9694
10.9812
10.9898
10.7711
10.7654
10.7588
10.7495
10.7383
10.726
10.7177
10.7196
10.7368
10.776
10.81
10.8268
10.8466
10.8698
10.8932
10.914
10.9305
10.9425
10.951
10.9577
10.6853
10.6818
10.6784
10.6742
10.6704
10.6676
10.6674
10.6852
10.7055
10.7586
10.7998
10.8233
10.8418
10.8608
10.8781
10.8923
10.9037
10.9134
10.9189
10.9235
10.5917
10.5898
10.5885
10.5878
10.5888
10.5939
10.6021
10.6203
10.6656
10.714
10.7691
10.8
10.823
10.8432
10.8589
10.8705
10.8785
10.8831
10.8853
10.8882
10.4895
10.4887
10.4891
10.4909
10.4953
10.5051
10.5237
10.5335
10.5887
10.6382
10.7203
10.7628
10.7973
10.8233
10.8413
10.854
10.8606
10.8613
10.8652
10.8668
10.3743
10.3742
10.3758
10.3796
10.3867
10.3986
10.4239
10.4582
10.5113
10.5838
10.6669
10.725
10.7736
10.8076
10.8309
10.8453
10.854
10.8653
10.8707
10.8705
10.2431
10.2438
10.2466
10.2527
10.2641
10.2812
10.3105
10.3737
10.4096
10.5359
10.6103
10.6935
10.7558
10.7984
10.8277
10.8443
10.8538
10.8581
10.8633
10.8699
10.0943
10.0959
10.1005
10.1098
10.1273
10.1564
10.1934
10.2642
10.3061
10.4573
10.5599
10.6725
10.7501
10.8021
10.8371
10.8628
10.8858
10.8965
10.8971
10.8957
9.9195
9.92163
9.92745
9.93879
9.95848
9.99176
10.0387
10.1258
10.2438
10.3737
10.5211
10.6644
10.763
10.8326
10.8803
10.9124
10.9313
10.9481
10.9538
10.9555
9.70983
9.71254
9.71985
9.73424
9.75896
9.79937
9.86292
9.95732
10.1125
10.2863
10.4885
10.6667
10.7921
10.8803
10.9391
10.9766
10.9982
11.0097
11.0165
11.0212
9.45549
9.45907
9.46863
9.48737
9.51993
9.57269
9.65379
9.77341
9.95841
10.1917
10.4655
10.6829
10.8414
10.9511
11.0235
11.0693
11.0965
11.1118
11.1215
11.1255
9.14357
9.14835
9.16107
9.18617
9.22977
9.30062
9.40996
9.56973
9.80409
10.0992
10.441
10.7188
10.9205
11.0592
11.1511
11.2098
11.2452
11.2655
11.2762
11.2798
8.75463
8.7614
8.77903
8.81297
8.87191
8.96719
9.11366
9.32662
9.62799
10.0078
10.4334
10.7852
11.0396
11.215
11.3318
11.4069
11.453
11.4792
11.492
11.4965
8.25955
8.26833
8.29194
8.33869
8.41926
8.54908
8.74649
9.03007
9.41965
9.91033
10.4439
10.8849
11.2029
11.423
11.5699
11.6643
11.7221
11.755
11.7715
11.7774
7.60908
7.62425
7.66044
7.72731
7.84203
8.02393
8.29525
8.67623
9.18323
9.8117
10.4775
11.0252
11.42
11.6952
11.8805
12.0004
12.0743
12.1165
12.1383
12.146
6.75036
6.76921
6.8205
6.92326
7.09515
7.36128
7.74386
8.26061
8.92163
9.71808
10.5401
11.2117
11.6976
12.0408
12.2764
12.4321
12.5298
12.5871
12.6149
12.6255
5.54123
5.58526
5.68819
5.85973
6.13662
6.5396
7.08466
7.78352
8.63756
9.63146
10.631
11.4415
12.0316
12.4555
12.7543
12.9592
13.0934
13.1758
13.2246
13.2434
3.84762
3.94755
4.12963
4.45686
4.93207
5.55258
6.32901
7.26518
8.35338
9.57309
10.7685
11.7301
12.4353
12.9529
13.3303
13.602
13.7932
13.9182
13.9879
14.0187
1.37581
1.56192
2.0345
2.69394
3.48384
4.41344
5.4955
6.72287
8.08105
9.54766
10.9476
12.0643
12.8901
13.5091
13.9762
14.3286
14.5949
14.7988
14.9434
15.0055
-2.24608
-1.40847
-0.32738
0.776135
1.93754
3.22617
4.64498
6.18197
7.82509
9.55708
11.1841
12.4821
13.458
14.211
14.8046
15.2813
15.6698
15.9955
16.2956
16.5248
-6.00448
-4.10136
-2.54722
-1.10875
0.439856
2.10187
3.854
5.69167
7.61443
9.6137
11.4824
12.9793
14.1169
15.0099
15.7296
16.3218
16.8151
17.2205
17.5369
17.9404
-8.29586
-6.09811
-4.53026
-2.81575
-0.913545
1.08607
3.13847
5.25276
7.43261
9.67222
11.7492
13.4052
14.6592
15.6389
16.4213
17.0556
17.5757
18.0005
18.2642
18.6882
-9.86009
-7.47703
-6.0526
-4.13399
-1.99833
0.216918
2.49147
4.83553
7.23799
9.68674
11.9378
13.7159
15.0481
16.0749
16.8818
17.5241
18.0424
18.4757
18.7133
19.136
-11.1375
-8.50838
-7.23027
-5.08273
-2.81292
-0.491289
1.93729
4.45934
7.04439
9.67027
12.0677
13.943
15.3321
16.3894
17.2098
17.8554
18.3717
18.8107
19.0379
19.461
-12.272
-9.36089
-8.2389
-5.80357
-3.48358
-1.07912
1.47567
4.13813
6.87128
9.64508
12.1661
14.1224
15.5577
16.6393
17.4707
18.1194
18.6338
19.0799
19.2967
19.7214
-13.2988
-10.1359
-9.05428
-6.42591
-4.09035
-1.58907
1.07792
3.85654
6.71266
9.6114
12.2392
14.2669
15.7436
16.8475
17.6894
18.3417
18.8546
19.2969
19.5193
19.9248
-13.9044
-10.9456
-9.72253
-7.00598
-4.63701
-2.04108
0.720105
3.59679
6.55774
9.56492
12.2888
14.3837
15.9011
17.0278
17.8809
18.5372
19.0498
19.4869
19.7147
20.1033
-14.4791
-11.557
-10.2668
-7.52338
-5.1153
-2.44396
0.391456
3.35034
6.40122
9.50422
12.3174
14.4788
16.0392
17.1914
18.0579
18.7198
19.2336
19.6697
19.8902
20.2817
-15.0175
-12.0901
-10.7343
-7.99116
-5.53786
-2.80919
0.0852394
3.11299
6.24077
9.42873
12.3261
14.5555
16.1634
17.3463
18.2305
18.9009
19.4176
19.855
20.0677
20.4666
-15.5032
-12.5892
-11.1735
-8.41221
-5.91722
-3.14542
-0.202819
2.88191
6.07454
9.33711
12.3139
14.6137
16.2758
17.497
18.4056
19.0895
19.6119
20.0502
20.2623
20.6601
-15.9219
-13.0207
-11.5746
-8.81049
-6.2732
-3.46323
-0.4793
2.65306
5.90032
9.22798
12.2793
14.6517
16.3757
17.645
18.587
19.2916
19.8245
20.2618
20.4795
20.873
-16.3579
-13.4488
-11.9431
-9.16774
-6.60341
-3.76366
-0.745143
2.42693
5.71932
9.10185
12.2206
14.6662
16.4593
17.7882
18.7757
19.5107
20.0617
20.5028
20.7277
21.1215
-16.7406
-13.8292
-12.2997
-9.51924
-6.9166
-4.05066
-1.00318
2.20093
5.52953
8.95708
12.1354
14.6524
16.5203
17.9209
18.9692
19.7482
20.3257
20.7772
21.0301
21.3893
-17.0736
-14.176
-12.6381
-9.83761
-7.21526
-4.32619
-1.25336
1.97748
5.33523
8.79819
12.0256
14.6083
16.5523
18.0346
19.1613
20.0051
20.6253
21.093
21.3825
21.7003
-17.457
-14.5292
-12.9312
-10.1335
-7.4916
-4.58492
-1.49311
1.75777
5.13631
8.62385
11.8881
14.5275
16.5452
18.1151
19.336
20.2702
20.9616
21.4677
21.7908
22.1186
-17.7315
-14.8077
-13.2346
-10.4245
-7.76014
-4.83953
-1.73192
1.53549
4.93079
8.43663
11.7274
14.4122
16.4958
18.1522
19.4769
20.5264
21.3296
21.9138
22.2836
22.6139
-18.0012
-15.0902
-13.4997
-10.6747
-8.00759
-5.07494
-1.9519
1.32935
4.73569
8.24935
11.5507
14.2626
16.3975
18.131
19.5576
20.7339
21.6889
22.4259
22.9176
23.2798
-18.3326
-15.3748
-13.7405
-10.9191
-8.23253
-5.2867
-2.15666
1.12785
4.53463
8.04597
11.3464
14.0711
16.2422
18.0396
19.5584
20.8568
21.9797
22.9241
23.6193
24.1367
-18.5995
-15.6514
-14.0327
-11.1704
-8.46456
-5.51138
-2.37628
0.913725
4.32632
7.84004
11.1365
13.8603
16.0475
17.8866
19.4753
20.8681
22.1246
23.3216
24.4146
25.3518
-18.7774
-15.8438
-14.2217
-11.3716
-8.67096
-5.71612
-2.57157
0.730451
4.14972
7.65769
10.931
13.6281
15.8028
17.6527
19.2814
20.7452
22.0878
23.3857
24.7378
26.0695
-18.9225
-15.933
-14.3343
-11.5098
-8.82582
-5.87668
-2.73147
0.56697
3.97143
7.45181
10.6834
13.3352
15.4733
17.3025
18.9274
20.3898
21.6868
22.8013
23.7398
24.493
-19.2912
-16.2775
-14.623
-11.7526
-9.04679
-6.07326
-2.9264
0.360475
3.74632
7.20251
10.3969
12.9976
15.0766
16.8452
18.4081
19.8
21.004
21.9941
22.7948
23.4576
-19.6496
-16.683
-14.9872
-12.0464
-9.28206
-6.28812
-3.14409
0.137272
3.51646
6.95693
10.1116
12.6444
14.6343
16.3021
17.7623
19.0497
20.1475
21.0491
21.7895
22.3402
-19.7266
-16.603
-15.0168
-12.0831
-9.38109
-6.45583
-3.33328
-0.0582801
3.31229
6.72629
9.82408
12.2679
14.1403
15.6659
16.9768
18.1359
19.1383
19.9361
20.5542
21.0827
-19.7832
-16.4586
-15.0122
-12.128
-9.54522
-6.65342
-3.52024
-0.243117
3.11334
6.48924
9.51982
11.8636
13.6027
14.9618
16.1018
17.0866
17.9016
18.496
18.9105
19.4539
-20.14
-16.8955
-15.4442
-12.4905
-9.84867
-6.85931
-3.68993
-0.41719
2.91172
6.24006
9.19873
11.4363
13.0319
14.193
15.102
15.8476
16.4229
16.7919
17.0646
17.7271
-20.371
-17.3421
-15.8021
-12.7125
-9.98448
-6.97288
-3.83736
-0.602154
2.68928
5.97338
8.86443
10.994
12.4425
13.3901
14.044
14.5431
14.8061
14.7893
14.677
15.1405
-20.3637
-17.2687
-15.701
-12.6404
-10.0204
-7.11551
-4.0359
-0.822054
2.45467
5.70993
8.53712
10.5553
11.8586
12.5979
12.9522
13.115
12.8889
12.0444
10.8628
11.1869
-20.4632
-17.3575
-15.826
-12.8375
-10.2874
-7.38587
-4.27555
-1.04205
2.23086
5.45171
8.20799
10.1135
11.2722
11.8228
11.815
11.5673
10.9337
9.11826
6.00521
3.26963
-20.8348
-17.8205
-16.2923
-13.261
-10.63
-7.63674
-4.48001
-1.24247
2.00936
5.18871
7.88095
9.69079
10.7139
11.1332
10.8487
10.0788
8.99297
6.76436
0.59222
-14.4344
-21.0813
-18.0577
-16.4776
-13.4153
-10.764
-7.76438
-4.62969
-1.41949
1.80434
4.94688
7.58194
9.31353
10.2096
10.5275
10.134
8.9659
7.2558
5.33007
3.28009
-3.97917
-21.1431
-18.0613
-16.4512
-13.4218
-10.8243
-7.87641
-4.78484
-1.60293
1.59452
4.69998
7.27933
8.95489
9.77192
9.99416
9.69571
8.72267
7.15667
5.49493
6.63293
5.40782
-21.3341
-18.2606
-16.6502
-13.6441
-11.0391
-8.09482
-5.0114
-1.84051
1.33847
4.41648
6.9595
8.61458
9.46229
9.70252
9.61899
9.27026
8.8341
7.71992
8.96437
8.59926
-21.6531
-18.6077
-16.9855
-13.9849
-11.337
-8.36782
-5.27198
-2.09924
1.07316
4.13982
6.67209
8.3374
9.28455
9.70481
9.89297
10.0274
10.4015
9.92854
10.3759
10.3235
-21.8992
-18.8519
-17.2061
-14.2114
-11.5573
-8.58626
-5.48944
-2.32025
0.843184
3.90012
6.43886
8.13988
9.21562
9.85486
10.2606
10.6559
11.1402
11.0828
11.4496
11.6632
-22.0641
-19.0048
-17.3426
-14.3517
-11.7163
-8.76005
-5.67597
-2.52094
0.62727
3.67545
6.23838
8.00605
9.18331
10.0156
10.5678
11.084
11.5465
11.7633
12.2364
12.6476
-22.233
-19.1675
-17.5013
-14.5108
-11.8969
-8.94778
-5.87322
-2.72999
0.408784
3.45889
6.05855
7.91345
9.1672
10.1225
10.8301
11.4231
11.96
12.3377
12.79
13.2564
-22.4093
-19.3357
-17.6619
-14.6896
-12.0923
-9.13864
-6.06733
-2.93054
0.204977
3.26352
5.9008
7.83723
9.18128
10.2026
11.0293
11.6996
12.2895
12.7575
13.1021
13.6154
-22.548
-19.4659
-17.7907
-14.8312
-12.2483
-9.29178
-6.22974
-3.10321
0.026473
3.09155
5.7628
7.76551
9.20121
10.2919
11.1877
11.9011
12.5064
12.9976
13.3486
13.7696
-22.6263
-19.5353
-17.8699
-14.9337
-12.3443
-9.3963
-6.35588
-3.24699
-0.12884
2.93763
5.63753
7.69562
9.2029
10.3567
11.2896
12.0251
12.6357
13.1564
13.4632
13.919
-22.6308
-19.5368
-17.8868
-14.9863
-12.3827
-9.45822
-6.44598
-3.36333
-0.264934
2.79905
5.51747
7.61764
9.17314
10.3684
11.3231
12.0734
12.6869
13.2361
13.513
14.0198
-22.542
-19.4501
-17.8185
-14.9684
-12.3416
-9.462
-6.48999
-3.4476
-0.382611
2.66546
5.39546
7.51986
9.1047
10.3268
11.2991
12.0691
12.6577
13.2541
13.5102
14.0561
-22.3118
-19.233
-17.6105
-14.8359
-12.2183
-9.392
-6.47501
-3.49087
-0.478581
2.53489
5.25401
7.38683
8.98748
10.2259
11.2058
11.9871
12.5969
13.1904
13.4371
14.0339
-21.9008
-18.8404
-17.2398
-14.549
-11.9726
-9.22279
-6.38508
-3.4833
-0.548428
2.40082
5.08318
7.20514
8.80725
10.0524
11.0386
11.8285
12.458
13.0223
13.3299
13.8392
-21.2454
-18.2329
-16.6558
-14.0706
-11.5733
-8.93045
-6.2044
-3.41732
-0.592095
2.25939
4.8738
6.95926
8.54474
9.78445
10.7712
11.5652
12.2046
12.7458
13.081
13.5769
-20.2623
-17.3173
-15.7679
-13.3496
-10.9771
-8.48544
-5.91666
-3.28722
-0.611956
2.10314
4.61166
6.62837
8.17291
9.38983
10.3658
11.1572
11.8013
12.3385
12.6911
13.1909
-18.7967
-15.9805
-14.5298
-12.3317
-10.1476
-7.86429
-5.50534
-3.08127
-0.600572
1.93409
4.29239
6.20027
7.67041
8.83739
9.78214
10.5566
11.1956
11.7298
12.0941
12.6003
-16.6773
-14.0979
-12.8285
-10.951
-9.04594
-7.04315
-4.9565
-2.79298
-0.558036
1.74488
3.90158
5.65177
7.00192
8.07618
8.95083
9.67538
10.283
10.8016
11.1726
11.6812
-13.616
-11.5324
-10.648
-9.20569
-7.66392
-6.01742
-4.27202
-2.42922
-0.494646
1.52253
3.42277
4.96068
6.13666
7.06118
7.80393
8.41136
8.91503
9.3453
9.66147
10.0925
-9.39185
-8.26394
-7.98908
-7.08669
-6.02891
-4.82812
-3.48257
-1.9966
-0.38257
1.34078
2.98622
4.31633
5.31827
6.0853
6.67812
7.1383
7.4943
7.77159
7.9561
8.19479
-5.57686
-5.2302
-5.28437
-4.84735
-4.28381
-3.54422
-2.61101
-1.48932
-0.195982
1.2433
2.65145
3.79682
4.65095
5.28799
5.75946
6.10225
6.34279
6.50482
6.57789
6.66273
-3.36451
-3.26902
-3.29419
-3.08915
-2.80542
-2.37595
-1.76646
-0.964305
0.0264395
1.18452
2.35249
3.31023
4.01501
4.52387
4.88108
5.12174
5.27441
5.36614
5.39965
5.42788
-2.18712
-2.13615
-2.10865
-1.97334
-1.78889
-1.50445
-1.08667
-0.510247
0.238035
1.15056
2.09805
2.88188
3.45297
3.85581
4.12987
4.30869
4.41966
4.48663
4.51657
4.53502
-1.42338
-1.3946
-1.35842
-1.26118
-1.12077
-0.905903
-0.593397
-0.159155
0.416008
1.13473
1.89624
2.53101
2.99194
3.31455
3.53279
3.67542
3.76476
3.81887
3.84569
3.85928
-0.841707
-0.825598
-0.797063
-0.731585
-0.628813
-0.467669
-0.230348
0.103
0.549903
1.11644
1.72489
2.23554
2.60661
2.86601
3.04128
3.15563
3.22691
3.26923
3.29075
3.3007
-0.403296
-0.392852
-0.371203
-0.326216
-0.252117
-0.133732
0.0442176
0.298794
0.645345
1.09065
1.57444
1.98307
2.28044
2.488
2.62771
2.71831
2.7744
2.80731
2.82431
2.83197
-0.087624
-0.0800828
-0.0632992
-0.0304299
0.0247649
0.11323
0.247556
0.442206
0.710737
1.06007
1.44352
1.76922
2.00654
2.17194
2.28296
2.35472
2.39909
2.42502
2.43856
2.4446
0.136467
0.142088
0.155045
0.179845
0.22193
0.289375
0.392186
0.542149
0.750822
1.0248
1.32802
1.58683
1.77567
1.90725
1.9955
2.05251
2.08776
2.10833
2.11911
2.1239
0.294008
0.298258
0.308236
0.327193
0.3595
0.411335
0.490626
0.606802
0.76938
0.984246
1.22361
1.42878
1.57872
1.68325
1.75334
1.79862
1.8266
1.84292
1.85149
1.85529
0.401343
0.404609
0.412337
0.42695
0.451846
0.491862
0.55325
0.643505
0.770348
0.93885
1.12756
1.28991
1.40876
1.49165
1.54722
1.58311
1.6053
1.61823
1.62504
1.62806
0.470132
0.472666
0.478653
0.489938
0.509199
0.540218
0.587887
0.658145
0.757223
0.889393
1.03804
1.16631
1.26033
1.32593
1.36994
1.39838
1.41597
1.42623
1.43163
1.43403
0.509045
0.511007
0.515641
0.524382
0.539351
0.56347
0.60057
0.655361
0.732846
0.836543
0.95354
1.05472
1.12898
1.18084
1.21567
1.23819
1.25213
1.26025
1.26453
1.26643
0.524713
0.52623
0.529839
0.536665
0.54833
0.567125
0.596065
0.638869
0.69952
0.780864
0.872861
0.952589
1.01118
1.05215
1.07968
1.09748
1.10849
1.1149
1.11827
1.11976
0.522447
0.523639
0.526467
0.531798
0.540878
0.555535
0.578135
0.611604
0.659085
0.722858
0.795133
0.857896
0.904088
0.936404
0.958109
0.972125
0.980785
0.985825
0.988481
0.989658
0.506303
0.50724
0.509445
0.513586
0.520663
0.532103
0.549754
0.575912
0.613047
0.662992
0.719708
0.769045
0.805384
0.830801
0.84786
0.858876
0.86569
0.869664
0.871766
0.872702
0.479221
0.479946
0.481649
0.484861
0.49039
0.499324
0.513105
0.533526
0.562533
0.601601
0.646041
0.684741
0.713247
0.733184
0.746579
0.755246
0.760619
0.763757
0.765421
0.766164
0.443717
0.444281
0.445607
0.448116
0.452432
0.459389
0.470112
0.486002
0.508593
0.539058
0.573754
0.603997
0.626297
0.641924
0.65245
0.659279
0.663516
0.665988
0.667294
0.667873
0.40152
0.401956
0.402988
0.404941
0.408287
0.413673
0.421975
0.434283
0.451802
0.475462
0.502451
0.52602
0.543436
0.555668
0.563916
0.56926
0.572567
0.57449
0.575502
0.575949
0.354654
0.354995
0.355793
0.357292
0.359854
0.363981
0.370352
0.37981
0.393285
0.411501
0.432299
0.450476
0.463939
0.473426
0.479818
0.483934
0.486475
0.487953
0.488729
0.489066
0.303888
0.304142
0.304742
0.305876
0.307814
0.310937
0.315754
0.322903
0.333087
0.346899
0.362695
0.376542
0.386885
0.394209
0.399174
0.402314
0.404238
0.405372
0.405987
0.406276
0.250854
0.251071
0.251559
0.252441
0.253926
0.256302
0.259953
0.265355
0.273051
0.283421
0.295173
0.305425
0.313
0.31843
0.321961
0.323964
0.325274
0.326072
0.326521
0.326767
0.196539
0.19677
0.197187
0.197899
0.199076
0.20094
0.203778
0.207912
0.213675
0.22123
0.229674
0.236932
0.242114
0.245501
0.24773
0.249534
0.250643
0.251266
0.251558
0.251672
0.130253
0.130248
0.130332
0.130719
0.131517
0.132831
0.134886
0.137793
0.141882
0.147508
0.154024
0.159753
0.164045
0.167088
0.169291
0.170732
0.171627
0.172208
0.17255
0.172696
0.0753008
0.0753505
0.0755008
0.0757522
0.0760709
0.0765845
0.0773602
0.0788152
0.0812843
0.0848179
0.0888898
0.092546
0.0953186
0.0972666
0.0986026
0.0994704
0.0999883
0.100266
0.100405
0.100479
0.0276933
0.0277152
0.027693
0.0275849
0.027447
0.0273652
0.0273482
0.0278286
0.0287558
0.0299863
0.0313327
0.0325695
0.0335005
0.0341768
0.0346743
0.0350244
0.035237
0.0353335
0.0353743
0.0353926
11.287
17.4177
18.4994
20.1887
21.5367
22.7002
23.6791
24.6363
25.3441
26.2953
17.6353
20.3234
20.9843
22.19
23.091
23.9039
24.6192
25.3116
25.5633
25.9068
20.8616
22.3051
22.7061
23.4611
24.0315
24.5431
24.9713
25.443
25.4893
25.6467
22.7194
23.5507
23.7383
24.3062
24.6507
24.9662
25.1866
25.4927
25.3899
25.5318
23.8203
24.3838
24.3854
24.8182
24.9706
25.1686
25.266
25.5005
25.335
25.5071
24.4897
24.9102
24.7722
25.1655
25.1702
25.3234
25.3221
25.545
25.3349
25.5281
24.8988
25.2619
24.9889
25.3864
25.2644
25.4425
25.3752
25.5841
25.3785
25.564
25.165
25.4493
25.1688
25.5182
25.3606
25.5218
25.4367
25.6224
25.4399
25.6071
25.3435
25.5686
25.3132
25.6033
25.4533
25.5886
25.5008
25.6647
25.5113
25.6497
25.4812
25.6616
25.4423
25.676
25.5494
25.6636
25.5803
25.717
25.5908
25.7005
25.6049
25.7382
25.5597
25.7418
25.639
25.7313
25.6615
25.7631
25.6568
25.7461
25.6538
25.7542
25.6071
25.7423
25.6585
25.7181
25.6666
25.7452
25.659
25.7271
25.6072
25.6787
25.5798
25.6776
25.633
25.6589
25.6372
25.6946
25.6428
25.7131
25.6934
25.7463
25.7118
25.7792
25.7834
25.8155
25.8472
25.9002
25.8817
25.9485
26.1655
26.1961
26.2029
26.2219
26.2382
26.2543
26.2744
26.3051
26.3168
26.3837
26.7829
26.7345
26.6976
26.673
26.6552
26.6443
26.641
26.6493
26.6547
26.7073
)
;

boundaryField
{
    wall-4
    {
        type            zeroGradient;
    }
    pressure-outlet-7
    {
        type            fixedValue;
        value           uniform 0;
    }
    velocity-inlet-6
    {
        type            zeroGradient;
    }
    velocity-inlet-5
    {
        type            zeroGradient;
    }
    frontAndBackPlanes
    {
        type            empty;
    }
}


// ************************************************************************* //
