/*--------------------------------*- C++ -*----------------------------------*\
| =========                 |                                                 |
| \\      /  F ield         | OpenFOAM: The Open Source CFD Toolbox           |
|  \\    /   O peration     | Version:  2412                                  |
|   \\  /    A nd           | Website:  www.openfoam.com                      |
|    \\/     M anipulation  |                                                 |
\*---------------------------------------------------------------------------*/
FoamFile
{
    version     2.0;
    format      ascii;
    arch        "LSB;label=32;scalar=64";
    class       surfaceScalarField;
    location    "0.5";
    object      phi;
}
// * * * * * * * * * * * * * * * * * * * * * * * * * * * * * * * * * * * * * //

dimensions      [0 3 -1 0 0 0 0];

oriented        oriented;

internalField   nonuniform List<scalar> 
4262
(
-0.413217
0.63373
-0.654537
1.06997
-0.730671
1.84328
-0.650789
3.08529
-0.505534
5.03935
-0.343766
7.8526
-0.245319
11.7487
-0.200374
16.7748
-0.148293
22.8297
-0.00195959
29.382
0.145159
29.3812
0.198464
22.8285
0.244191
16.774
0.343278
11.7481
0.505614
7.85203
0.65108
5.03914
0.730971
3.08528
0.654873
1.84324
0.413402
1.07012
0.633915
-0.785325
1.41906
-1.58906
1.87371
-2.19988
2.4541
-2.6394
3.5248
-2.82237
5.22232
-2.69276
7.72298
-2.19714
11.2531
-1.45474
16.0324
-0.67162
22.0466
-0.00441589
28.7148
0.662807
28.714
1.44648
22.0448
2.19039
16.0301
2.68774
11.2507
2.81875
7.72102
2.63681
5.22107
2.19816
3.52393
1.58794
2.45346
0.784812
1.87325
1.41873
-0.669814
2.08887
-1.51654
2.72043
-2.36756
3.30512
-3.1123
4.26954
-3.59887
5.70888
-3.75416
7.87827
-3.53736
11.0363
-2.85519
15.3502
-1.63878
20.8302
-0.00866459
27.0847
1.62209
27.0833
2.83981
20.8271
3.52439
15.3455
3.7438
11.0313
3.59077
7.87405
3.10657
5.70527
2.36372
4.26679
1.51412
3.30306
0.668696
2.71868
2.08742
-0.476556
2.56543
-1.10547
3.34935
-1.85611
4.05576
-2.61858
5.03201
-3.26767
6.35797
-3.62731
8.23791
-3.57549
10.9845
-3.03098
14.8057
-1.84825
19.6475
-0.0122526
25.2487
1.82524
25.2458
3.01183
19.6405
3.55982
14.7975
3.61444
10.9767
3.25744
8.23104
2.61087
6.35183
1.85067
5.02699
1.10211
4.05162
0.475046
3.34574
2.56247
-0.329878
2.8953
-0.769911
3.78938
-1.29253
4.57838
-1.85085
5.59033
-2.39902
6.90615
-2.83142
8.67031
-2.93972
11.0928
-2.53628
14.4023
-1.56488
18.6761
-0.0157164
23.6995
1.53514
23.6949
2.51176
18.6639
2.91906
14.3902
2.81447
11.0813
2.38593
8.65959
1.84112
6.89664
1.28592
5.58219
0.766042
4.5715
0.328127
3.78366
2.8906
-0.220445
3.11575
-0.520262
4.0892
-0.875136
4.93325
-1.26399
5.97918
-1.65768
7.29983
-1.98774
9.00038
-2.12565
11.2307
-1.89375
14.1704
-1.20094
17.9833
-0.0178684
22.5165
1.16677
22.5103
1.86195
17.9688
2.09891
14.1533
1.96638
11.2138
1.64114
8.98484
1.25165
7.28612
0.866421
5.96742
0.514576
4.92334
0.217852
4.08038
3.10845
-0.144042
3.25979
-0.344372
4.28953
-0.58096
5.16984
-0.843214
6.24144
-1.1126
7.56922
-1.34815
9.23592
-1.47182
11.3543
-1.36456
14.0631
-0.89966
17.5184
-0.0226692
21.6395
0.856128
21.6315
1.32788
17.497
1.44028
14.0409
1.32256
11.3315
1.09298
9.21442
0.829091
7.55001
0.571863
6.22465
0.339931
5.15527
0.142178
4.27813
3.25063
-0.092739
3.35253
-0.22438
4.42117
-0.378975
5.32443
-0.550913
6.41338
-0.728458
7.74677
-0.886039
9.39351
-0.975914
11.4442
-0.922014
14.0092
-0.615278
17.2116
-0.0254773
21.0497
0.56687
21.0391
0.874024
17.1898
0.935985
13.9789
0.854588
11.4129
0.704207
9.3648
0.532571
7.72164
0.36537
6.39185
0.214018
5.30662
0.0874968
4.40465
3.33812
-0.0595408
3.41207
-0.145438
4.50707
-0.245867
5.42486
-0.357627
6.52514
-0.473158
7.8623
-0.575874
9.49622
-0.636951
11.5053
-0.605828
13.9781
-0.412987
17.0188
-0.0349907
20.6717
0.348857
20.6553
0.547077
16.9916
0.587186
13.9388
0.536523
11.4636
0.442456
9.45887
0.334958
7.82914
0.230627
6.49618
0.138217
5.39903
0.0574193
4.48545
3.39554
-0.0387068
3.45078
-0.0950524
4.56341
-0.160814
5.49063
-0.234014
6.59834
-0.309692
7.93797
-0.37679
9.56332
-0.413763
11.5423
-0.399561
13.9639
-0.280107
16.8993
-0.0443012
20.4359
0.20334
20.4076
0.331217
16.8637
0.359487
13.9105
0.33021
11.4929
0.273664
9.51541
0.208934
7.89387
0.14555
6.55956
0.0868222
5.45776
0.0332869
4.53899
3.42883
-0.0259863
3.47676
-0.0638368
4.60126
-0.108142
5.53493
-0.157812
6.648
-0.210151
7.99031
-0.259244
9.61241
-0.292798
11.5758
-0.2924
13.9635
-0.194317
16.8013
-0.0469951
20.2885
0.105735
20.2549
0.187964
16.7815
0.209196
13.8893
0.193297
11.5088
0.157873
9.55084
0.114818
7.93693
0.071719
6.60266
0.0319462
5.49753
0.00833468
4.5626
3.43716
-0.0183095
3.49507
-0.0447812
4.62773
-0.0759085
5.56606
-0.111111
6.68321
-0.148847
8.02805
-0.186228
9.64979
-0.218122
11.6077
-0.209451
13.9548
-0.150364
16.7422
-0.0560249
20.1942
0.0344652
20.1644
0.0899459
16.726
0.107915
13.8713
0.101357
11.5153
0.0824032
9.56979
0.0593013
7.96003
0.0343038
6.62766
0.013091
5.51875
0.00530505
4.57038
3.44247
-0.01324
3.50831
-0.0320591
4.64655
-0.0540272
5.58803
-0.0784782
6.70766
-0.103439
8.05301
-0.126518
9.67287
-0.143045
11.6242
-0.131227
13.943
-0.164615
16.7756
-0.0929053
20.1225
-0.0249763
20.0965
0.020563
16.6805
0.0410181
13.8509
0.045564
11.5108
0.0417517
9.5736
0.0364411
7.96534
0.0319337
6.63217
0.0319502
5.51873
0.0236029
4.57873
3.46607
-0.0107195
3.51903
-0.0253427
4.66118
-0.0423484
5.60503
-0.0612149
6.72653
-0.0806933
8.07249
-0.0980405
9.69022
-0.105945
11.6321
-0.1033
13.9404
-0.190981
16.8632
-0.135613
20.0671
-0.0742939
20.0352
-0.0321726
16.6384
-0.0054632
13.8242
0.0127724
11.4925
0.0259432
9.56043
0.034344
7.95694
0.0425922
6.62392
0.0510151
5.51031
0.0336873
4.59606
3.49976
-0.0109103
3.52994
-0.0249919
4.67526
-0.0415105
5.62155
-0.0602022
6.74522
-0.0803631
8.09265
-0.0974866
9.70734
-0.105117
11.6398
-0.126804
13.962
-0.186655
16.9231
-0.162011
20.0425
-0.112939
19.9861
-0.0766579
16.6021
-0.0482355
13.7957
-0.0246185
11.4689
-0.00382311
9.53964
0.012669
7.94045
0.0257574
6.61083
0.0282599
5.50781
0.0130627
4.61126
3.51282
-0.0128526
3.5428
-0.0289337
4.69134
-0.0479755
5.64059
-0.0700473
6.76729
-0.0947857
8.11739
-0.119988
9.73255
-0.145123
11.6649
-0.182502
13.9994
-0.177235
16.9178
-0.177329
20.0426
-0.149327
19.9581
-0.121036
16.5738
-0.0949703
13.7697
-0.0736204
11.4476
-0.0570485
9.52306
-0.042487
7.92589
-0.0293988
6.59774
-0.0234698
5.50188
-0.0167226
4.60451
3.4961
-0.0157523
3.55855
-0.0352308
4.71082
-0.0583718
5.66373
-0.0855327
6.79445
-0.11692
8.14878
-0.153178
9.7688
-0.193712
11.7054
-0.230741
14.0365
-0.200818
16.8879
-0.208011
20.0498
-0.194542
19.9446
-0.168489
16.5478
-0.140324
13.7415
-0.114987
11.4222
-0.0938222
9.5019
-0.0767611
7.90882
-0.0637691
6.58475
-0.0531436
5.49125
-0.0313725
4.58274
3.46473
-0.0190442
3.57759
-0.0427327
4.7345
-0.0708914
5.69189
-0.103917
6.82747
-0.142036
8.1869
-0.185455
9.81222
-0.233056
11.753
-0.27202
14.0754
-0.256039
16.8719
-0.266418
20.0602
-0.254331
19.9325
-0.222703
16.5161
-0.186472
13.7053
-0.151565
11.3873
-0.120466
9.4708
-0.0946459
7.883
-0.0750864
6.56519
-0.0562605
5.47243
-0.0288851
4.55536
3.43584
-0.0242747
3.60187
-0.05357
4.7638
-0.0882538
5.72658
-0.128863
6.86808
-0.17554
8.23357
-0.227748
9.86443
-0.28306
11.8084
-0.330472
14.1228
-0.33947
16.8809
-0.352292
20.073
-0.33022
19.9105
-0.288354
16.4743
-0.240745
13.6577
-0.19417
11.3408
-0.151828
9.42846
-0.114818
7.846
-0.0837143
6.53409
-0.0548574
5.44357
-0.0257102
4.52622
3.41013
-0.0293555
3.63122
-0.0665582
4.801
-0.110782
5.7708
-0.162385
6.91969
-0.221381
8.29257
-0.286403
9.92945
-0.353593
11.8755
-0.412876
14.1821
-0.441897
16.9099
-0.454322
20.0854
-0.423288
19.8794
-0.369025
16.42
-0.307443
13.5961
-0.246846
11.2802
-0.19123
9.37284
-0.141938
7.7967
-0.0986899
6.49084
-0.0609768
5.40586
-0.0275223
4.49276
3.38261
-0.0416811
3.6729
-0.0893853
4.84871
-0.145486
5.8269
-0.211102
6.9853
-0.285846
8.36731
-0.367551
10.0112
-0.450692
11.9587
-0.524378
14.2558
-0.569119
16.9547
-0.579733
20.096
-0.537458
19.8372
-0.467775
16.3503
-0.389106
13.5174
-0.311447
11.2025
-0.239801
9.30119
-0.176131
7.73303
-0.120598
6.43531
-0.073053
5.35831
-0.0321703
4.45188
3.35044
-0.0492911
3.7222
-0.112124
4.91154
-0.187539
5.90232
-0.274954
7.07272
-0.373444
8.4658
-0.478792
10.1165
-0.583056
12.063
-0.673287
14.346
-0.729797
17.0112
-0.736437
20.1027
-0.679565
19.7803
-0.590695
16.2614
-0.491314
13.418
-0.393072
11.1043
-0.302049
9.21017
-0.221063
7.65205
-0.150984
6.36523
-0.0913197
5.29865
-0.0407494
4.40131
3.30969
-0.0765512
3.79875
-0.163133
4.99812
-0.262526
6.00171
-0.377653
7.18784
-0.504782
8.59293
-0.637029
10.2488
-0.763458
12.1894
-0.86826
14.4508
-0.930304
17.0732
-0.927564
20.0999
-0.851329
19.704
-0.739844
16.15
-0.61705
13.2952
-0.495826
10.983
-0.38299
9.09734
-0.281759
7.55082
-0.193373
6.27684
-0.11799
5.22326
-0.0526741
4.33599
3.25702
-0.104211
3.90296
-0.219875
5.11379
-0.362085
6.14392
-0.521118
7.34688
-0.688086
8.7599
-0.853299
10.414
-1.00296
12.339
-1.11937
14.5672
-1.18086
17.1347
-1.16303
20.0821
-1.06245
19.6035
-0.924537
16.012
-0.774868
13.1456
-0.626477
10.8346
-0.48627
8.95713
-0.357885
7.42243
-0.242919
6.16188
-0.142783
5.12313
-0.0598376
4.25305
3.19718
-0.200674
4.10363
-0.374431
5.28754
-0.570181
6.33967
-0.772527
7.54922
-0.975224
8.9626
-1.16591
10.6046
-1.32808
12.5012
-1.44329
14.6825
-1.49058
17.182
-1.4459
20.0374
-1.31342
19.471
-1.14578
15.8444
-0.968748
12.9685
-0.795272
10.6612
-0.632186
8.79404
-0.483154
7.2734
-0.349637
6.02836
-0.229616
5.00311
-0.117637
4.14107
3.07954
-0.306658
4.41029
-0.630545
5.61143
-0.908725
6.61785
-1.16341
7.8039
-1.39708
9.19627
-1.59785
10.8054
-1.75245
12.6558
-1.84618
14.7762
-1.86128
17.1971
-1.77577
19.9519
-1.6042
19.2994
-1.40494
15.6451
-1.2003
12.7639
-1.00064
10.4615
-0.810243
8.60365
-0.630416
7.09357
-0.461618
5.85956
-0.304495
4.84598
-0.15329
3.98986
2.92625
-0.215945
4.62623
-0.493649
5.88914
-0.762458
6.88666
-1.04118
8.08262
-1.30938
9.46447
-1.55738
11.0534
-1.77788
12.8763
-1.95769
14.956
-2.07347
17.3129
-2.08734
19.9658
-1.97608
19.1882
-1.78586
15.4549
-1.55179
12.5298
-1.29634
10.2061
-1.0345
8.3418
-0.776887
6.83596
-0.531243
5.61392
-0.304551
4.61929
-0.112539
3.79785
2.81371
-0.11703
4.74326
-0.233213
6.00532
-0.434395
7.08784
-0.659207
8.30744
-0.883333
9.6886
-1.09562
11.2657
-1.28661
13.0673
-1.4403
15.1097
-1.53371
17.4063
-1.53276
19.9648
-1.42042
19.0758
-1.24494
15.2794
-1.04215
12.327
-0.834425
9.99833
-0.635947
8.14332
-0.455089
6.6551
-0.295624
5.45445
-0.157684
4.48135
-0.0478965
3.68806
2.76582
-0.116596
4.85986
-0.225243
6.11397
-0.354727
7.21732
-0.498727
8.45144
-0.650556
9.84043
-0.809418
11.4246
-0.960679
13.2186
-1.08453
15.2335
-1.15798
17.4798
-1.15122
19.9581
-1.05223
18.9768
-0.90653
15.1337
-0.746616
12.1671
-0.590666
9.84238
-0.448036
8.00069
-0.322479
6.52955
-0.214426
5.3464
-0.121781
4.38871
-0.0436535
3.60994
2.72216
-0.100339
4.9602
-0.193957
6.20758
-0.307598
7.33096
-0.405736
8.54957
-0.512431
9.94712
-0.630755
11.5429
-0.745929
13.3337
-0.842003
15.3296
-0.89873
17.5365
-0.88996
19.9493
-0.806824
18.8937
-0.688901
15.0158
-0.56291
12.0411
-0.442623
9.7221
-0.334252
7.89232
-0.239801
6.43509
-0.159177
5.26578
-0.0913912
4.32092
-0.0351232
3.55367
2.68704
-0.0776976
5.0379
-0.151885
6.28177
-0.236314
7.41539
-0.313659
8.62692
-0.40724
10.0407
-0.504238
11.6399
-0.596062
13.4256
-0.672966
15.4065
-0.718588
17.5821
-0.710631
19.9413
-0.641794
18.8248
-0.545422
14.9195
-0.443559
11.9393
-0.347244
9.62578
-0.261262
7.80634
-0.18701
6.36084
-0.12421
5.20298
-0.0713092
4.26802
-0.028311
3.51067
2.65873
-0.0501349
5.08803
-0.123055
6.35469
-0.175688
7.46803
-0.244856
8.69609
-0.32737
10.1232
-0.409491
11.722
-0.487382
13.5035
-0.553068
15.4722
-0.592893
17.6219
-0.587907
19.9364
-0.531299
18.7682
-0.451171
14.8393
-0.366436
11.8545
-0.286534
9.54588
-0.215458
7.73526
-0.154242
6.29963
-0.102586
5.15132
-0.0602723
4.22571
-0.0228578
3.47325
2.63587
-0.0256945
5.11373
-0.0909339
6.41993
-0.134931
7.51202
-0.199475
8.76063
-0.269218
10.193
-0.339819
11.7926
-0.408537
13.5722
-0.467574
15.5312
-0.505107
17.6595
-0.504543
19.9358
-0.458541
18.7222
-0.390767
14.7715
-0.318144
11.7819
-0.249319
9.47705
-0.188024
7.67397
-0.135288
6.24689
-0.0907801
5.10681
-0.0538584
4.18879
-0.0239397
3.44334
2.61193
-0.0227965
5.13652
-0.0723002
6.46943
-0.109246
7.54897
-0.166541
8.81793
-0.226925
10.2533
-0.289559
11.8552
-0.351843
13.6345
-0.406712
15.5861
-0.444016
17.6968
-0.448816
19.9406
-0.412377
18.6858
-0.354256
14.7134
-0.290145
11.7178
-0.228518
9.41543
-0.173273
7.61872
-0.125658
6.19928
-0.0854733
5.06663
-0.0518133
4.15513
-0.0247562
3.41628
2.58718
-0.00339328
5.13992
-0.0487891
6.51483
-0.087322
7.5875
-0.141147
8.87175
-0.195436
10.3076
-0.252905
11.9127
-0.310676
13.6922
-0.363051
15.6385
-0.401526
17.7352
-0.412463
19.9515
-0.385151
18.6585
-0.335013
14.6633
-0.27689
11.6597
-0.219526
9.35806
-0.16733
7.56653
-0.121963
6.15391
-0.0835114
5.02817
-0.0513619
4.12298
-0.0245973
3.38951
2.56258
0.0073329
5.13258
-0.0293126
6.55148
-0.0744009
7.63259
-0.122855
8.9202
-0.172769
10.3575
-0.226283
11.9662
-0.280594
13.7465
-0.33156
15.6894
-0.372024
17.7757
-0.389628
19.9691
-0.371458
18.6403
-0.328537
14.6204
-0.27484
11.606
-0.219616
9.30284
-0.16811
7.51502
-0.122696
6.10849
-0.0839459
4.98942
-0.0516352
4.09067
-0.0239597
3.36184
2.53862
0.00614852
5.12644
-0.0264545
6.58408
-0.061602
7.66774
-0.107594
8.9662
-0.155388
10.4053
-0.205853
12.0167
-0.257612
13.7983
-0.307806
15.7396
-0.350793
17.8187
-0.375619
19.994
-0.367148
18.6318
-0.331624
14.5848
-0.281826
11.5562
-0.227496
9.24851
-0.175003
7.46253
-0.127683
6.06117
-0.0868694
4.94861
-0.0531222
4.05692
-0.0231997
3.33192
2.51542
0.00126126
5.12517
-0.027365
6.61271
-0.0661734
7.70655
-0.102227
9.00225
-0.143435
10.4465
-0.189969
12.0632
-0.239431
13.8478
-0.289377
15.7896
-0.335225
17.8645
-0.367545
20.0263
-0.369378
18.6337
-0.342041
14.5575
-0.296532
11.5107
-0.242663
9.19464
-0.188048
7.40791
-0.137368
6.01049
-0.0926731
4.90392
-0.0551536
4.0194
-0.023757
3.30052
2.49166
0.00489514
5.12028
-0.0176025
6.6352
-0.0495459
7.73849
-0.0907593
9.04346
-0.132585
10.4884
-0.17714
12.1078
-0.224724
13.8953
-0.274245
15.8391
-0.322595
17.9129
-0.362269
20.066
-0.375128
18.6465
-0.357432
14.5398
-0.317677
11.4709
-0.264953
9.14192
-0.207805
7.35077
-0.152753
5.95544
-0.10325
4.85441
-0.0595065
3.97566
-0.021306
3.26232
2.47036
-0.00758774
5.12787
-0.033743
6.66136
-0.0628473
7.76759
-0.0888047
9.06942
-0.124134
10.5237
-0.165501
12.1491
-0.211191
13.941
-0.260478
15.8884
-0.311421
17.9638
-0.358478
20.113
-0.382975
18.671
-0.376438
14.5333
-0.344456
11.4389
-0.294415
9.09187
-0.234721
7.29107
-0.173363
5.89408
-0.116668
4.79772
-0.0677058
3.92669
-0.0233463
3.21796
2.44701
-0.00590219
5.13377
-0.0199097
6.67537
-0.0464799
7.79416
-0.0814199
9.10436
-0.11677
10.5591
-0.155682
12.1881
-0.199736
13.9851
-0.248612
15.9373
-0.301424
18.0166
-0.354777
20.1664
-0.390609
18.7069
-0.396506
14.5392
-0.374897
11.4173
-0.330765
9.04774
-0.271287
7.23159
-0.204755
5.82755
-0.139557
4.73252
-0.0813451
3.86848
-0.0337705
3.17039
2.41324
-0.00415548
5.13792
-0.0286334
6.69984
-0.0542169
7.81975
-0.0780576
9.1282
-0.109148
10.5901
-0.146311
12.2252
-0.188481
14.0273
-0.236343
15.9851
-0.290322
18.0706
-0.349306
20.2253
-0.396485
18.754
-0.416198
14.5589
-0.40766
11.4088
-0.372973
9.01306
-0.316825
7.17544
-0.245604
5.75633
-0.168079
4.655
-0.0954627
3.79587
-0.0376624
3.11258
2.37558
-0.0138367
5.15176
-0.0267087
6.71272
-0.0467725
7.83981
-0.0726576
9.15409
-0.10283
10.6203
-0.137257
12.2596
-0.177508
14.0675
-0.224631
16.0322
-0.27973
18.1257
-0.343604
20.2892
-0.401049
18.8115
-0.434639
14.5925
-0.441013
11.4152
-0.419894
8.99194
-0.37412
7.12967
-0.307779
5.68999
-0.225844
4.57306
-0.138289
3.70831
-0.0565016
3.0308
2.31908
-0.00625087
5.15801
-0.023471
6.72994
-0.0455272
7.86187
-0.0686148
9.17717
-0.0960428
10.6477
-0.128711
12.2923
-0.167392
14.1062
-0.213377
16.0782
-0.268505
18.1809
-0.335375
20.3561
-0.401173
18.8773
-0.44819
14.6395
-0.471015
11.438
-0.466467
8.98739
-0.434187
7.09739
-0.375693
5.6315
-0.288783
4.48615
-0.176601
3.59613
-0.0703859
2.92458
2.24869
-0.00898806
5.167
-0.0252238
6.74617
-0.0426713
7.87932
-0.0641236
9.19863
-0.0899414
10.6736
-0.120593
12.323
-0.157219
14.1428
-0.201523
16.1225
-0.25604
18.2354
-0.325147
20.4252
-0.398481
18.9506
-0.458403
14.6994
-0.498403
11.478
-0.513497
9.00248
-0.502231
7.08612
-0.467977
5.59724
-0.412721
4.43089
-0.313197
3.4966
-0.143571
2.75496
2.10512
-0.00921078
5.17621
-0.0217812
6.75874
-0.038939
7.89647
-0.059309
9.219
-0.0836072
10.6979
-0.112263
12.3516
-0.147172
14.1777
-0.190159
16.1655
-0.244393
18.2896
-0.315242
20.496
-0.394254
19.0296
-0.464723
14.7699
-0.520526
11.5338
-0.555564
9.03752
-0.564995
7.09556
-0.544162
5.57641
-0.495021
4.38175
-0.425747
3.42733
-0.281304
2.61051
1.82381
-0.00842075
5.18463
-0.0236751
6.774
-0.0388624
7.91166
-0.0586254
9.23876
-0.0816797
10.7209
-0.110541
12.3805
-0.14648
14.2137
-0.191749
16.2108
-0.250344
18.3482
-0.329116
20.5748
-0.421405
19.1219
-0.510326
14.8588
-0.58961
11.6131
-0.652506
9.10042
-0.696587
7.13964
-0.728155
5.60798
-0.765227
4.41883
-0.840998
3.5031
-1.00653
2.77605
1.87042
-1.05314
-0.00819315
5.19282
-0.0213509
6.78715
-0.0388666
7.92918
-0.056141
9.25603
-0.0788332
10.7436
-0.106652
12.4083
-0.142005
14.249
-0.187332
16.2561
-0.247211
18.4081
-0.330147
20.6578
-0.432239
19.224
-0.537779
14.9643
-0.642246
11.7175
-0.740121
9.19829
-0.828489
7.228
-0.908497
5.68799
-0.982247
4.49258
-1.03872
3.55957
-1.01317
2.7505
1.79235
-0.935099
-0.0070336
5.19986
-0.017513
6.79763
-0.0317417
7.9434
-0.052088
9.27638
-0.0733108
10.7648
-0.100666
12.4357
-0.135931
14.2843
-0.181381
16.3016
-0.242593
18.4693
-0.329939
20.7451
-0.441758
19.3358
-0.563112
15.0857
-0.690037
11.8445
-0.815002
9.32326
-0.929503
7.34251
-1.02788
5.78636
-1.10839
4.57308
-1.16376
3.61495
-1.17318
2.75992
1.8773
-1.25814
-0.0094471
5.20931
-0.0219735
6.81016
-0.0332176
7.95465
-0.04724
9.2904
-0.0675712
10.7852
-0.0954148
12.4635
-0.129827
14.3187
-0.174979
16.3467
-0.237136
18.5314
-0.328309
20.8363
-0.448606
19.4561
-0.584374
15.2215
-0.734736
11.9948
-0.895671
9.48419
-1.05806
7.50489
-1.20642
5.93472
-1.3232
4.68987
-1.40616
3.6979
-1.44136
2.79512
2.02013
-1.58418
-0.00531429
5.21462
-0.0146871
6.81953
-0.0321651
7.97213
-0.0455468
9.30378
-0.0656779
10.8053
-0.0909963
12.4888
-0.123085
14.3508
-0.167494
16.3911
-0.23028
18.5942
-0.324734
20.9307
-0.452172
19.5836
-0.59976
15.3691
-0.766559
12.1616
-0.945445
9.66308
-1.11754
7.67699
-1.27366
6.09084
-1.42031
4.83653
-1.54728
3.82487
-1.65897
2.90681
2.19928
-1.83812
-0.00273592
5.21736
-0.0155792
6.83238
-0.0290129
7.98556
-0.0428204
9.31759
-0.0622802
10.8248
-0.0861795
12.5127
-0.118867
14.3835
-0.164045
16.4363
-0.228102
18.6583
-0.325411
21.028
-0.458044
19.7162
-0.614389
15.5254
-0.7961
12.3433
-1.00803
9.87501
-1.24857
7.91752
-1.50344
6.34571
-1.7366
5.06969
-1.90392
3.99219
-2.05022
3.05312
2.38383
-2.23478
0.00144192
5.21591
-0.0162168
6.85003
-0.0221734
7.99152
-0.0387071
9.33413
-0.0592807
10.8453
-0.0853672
12.5388
-0.119996
14.4181
-0.165688
16.482
-0.230399
18.723
-0.329415
21.1271
-0.465344
19.8521
-0.62816
15.6882
-0.820544
12.5357
-1.04525
10.0997
-1.2824
8.15468
-1.49797
6.56128
-1.72118
5.29289
-1.97555
4.24656
-2.21127
3.28883
2.61308
-2.44052
-0.00374792
5.21966
-0.015496
6.86178
-0.0256911
8.00171
-0.0415918
9.35003
-0.0624497
10.8662
-0.088342
12.5647
-0.121736
14.4515
-0.166661
16.5269
-0.231721
18.7881
-0.33212
21.2275
-0.469747
19.9897
-0.634641
15.8531
-0.82667
12.7277
-1.05238
10.3254
-1.33441
8.4367
-1.66801
6.89488
-2.05009
5.67497
-2.45756
4.65403
-2.85862
3.6899
2.96984
-3.21538
-0.00179674
5.22146
-0.0136991
6.87369
-0.0286896
8.0167
-0.0450145
9.36635
-0.0642511
10.8854
-0.0888702
12.5893
-0.121571
14.4842
-0.167212
16.5726
-0.233185
18.854
-0.333928
21.3282
-0.470181
20.126
-0.633054
16.016
-0.83116
12.9259
-1.06576
10.56
-1.3758
8.74674
-1.73176
7.25084
-2.03408
5.9773
-2.45516
5.0751
-3.09224
4.32698
3.24222
-3.36462
-0.00725384
5.22871
-0.0146101
6.88104
-0.0251994
8.02729
-0.0411907
9.38234
-0.0610764
10.9053
-0.0871467
12.6154
-0.121656
14.5187
-0.16865
16.6196
-0.234588
18.92
-0.333512
21.4271
-0.465283
20.2578
-0.61919
16.1699
-0.807919
13.1146
-1.01694
10.7691
-1.26842
8.99822
-1.66574
7.64816
-2.2119
6.52345
-2.78456
5.64777
-3.57668
5.1191
4.24729
-4.58175
-0.005875
5.23459
-0.0150345
6.8902
-0.0247915
8.03705
-0.041692
9.39924
-0.0629491
10.9266
-0.0895154
12.642
-0.123895
14.5531
-0.169426
16.6651
-0.231988
18.9825
-0.323999
21.5191
-0.444463
20.3782
-0.578172
16.3036
-0.740825
13.2772
-0.929213
10.9574
-1.1166
9.18561
-1.40677
7.93833
-1.94506
7.06174
-2.39762
6.10034
-1.71885
4.44032
2.52844
-0.00231287
5.2369
-0.0140521
6.90194
-0.0265933
8.04959
-0.0466546
9.4193
-0.0681882
10.9481
-0.094738
12.6685
-0.129633
14.588
-0.176134
16.7116
-0.239931
19.0463
-0.332087
21.6113
-0.449791
20.4959
-0.572312
16.4261
-0.708852
13.4138
-0.86949
11.1181
-1.01742
9.33354
-1.06318
7.98408
-0.878287
6.87684
-0.654338
5.87639
-0.494699
4.28068
2.03374
-0.0056803
5.24258
-0.0152387
6.9115
-0.026602
8.06095
-0.0472329
9.43994
-0.0692745
10.9701
-0.0972249
12.6965
-0.133326
14.6241
-0.180564
16.7588
-0.244256
19.11
-0.333626
21.7007
-0.443064
20.6054
-0.549693
16.5327
-0.626349
13.4904
-0.68829
11.18
-0.686303
9.33156
-0.57035
7.86813
-0.310263
6.61676
-0.0583084
5.62443
-0.00178568
4.22416
2.03196
-0.00958463
5.25216
-0.0186867
6.9206
-0.0290958
8.07136
-0.0479255
9.45877
-0.070101
10.9923
-0.0991319
12.7255
-0.135683
14.6606
-0.182526
16.8057
-0.244508
19.172
-0.328651
21.7848
-0.423506
20.7002
-0.507664
16.6169
-0.541096
13.5239
-0.522916
11.1618
-0.399812
9.20845
-0.246778
7.7151
-0.0841997
6.45418
0.0983695
5.44186
0.136645
4.18589
2.1686
-0.00978129
5.26195
-0.0220956
6.93292
-0.035233
8.0845
-0.0527013
9.47623
-0.0740517
11.0137
-0.101852
12.7533
-0.136809
14.6956
-0.181519
16.8504
-0.240003
19.2305
-0.316597
21.8614
-0.391604
20.7752
-0.442554
16.6679
-0.451474
13.5328
-0.390829
11.1012
-0.293222
9.11084
-0.162839
7.58471
-0.00594446
6.29728
0.200295
5.23562
0.275324
4.11086
2.44393
-0.00939668
5.27134
-0.0239277
6.94745
-0.0391445
8.09972
-0.0559032
9.49299
-0.0765549
11.0343
-0.102287
12.779
-0.134467
14.7278
-0.17563
16.8915
-0.228929
19.2838
-0.295988
21.9285
-0.352598
20.8318
-0.37068
16.6859
-0.362505
13.5246
-0.301119
11.0398
-0.28158
9.09131
-0.137723
7.44086
0.0280442
6.13152
0.228335
5.03533
0.268493
4.0707
2.71242
-0.00991706
5.28126
-0.0243769
6.96191
-0.0394482
8.11479
-0.0542317
9.50778
-0.0737035
11.0538
-0.0970291
12.8023
-0.125828
14.7566
-0.162707
16.9284
-0.210115
19.3312
-0.267208
21.9855
-0.311118
20.8758
-0.311903
16.6867
-0.274724
13.4874
-0.225979
10.9911
-0.216793
9.08212
-0.0864515
7.31052
0.0403429
6.00472
0.159333
4.91634
0.198634
4.0314
2.91105
-0.00965434
5.29091
-0.022042
6.97429
-0.0348357
8.12758
-0.0483823
9.52132
-0.0655863
11.071
-0.0853501
12.8221
-0.110026
14.7812
-0.14216
16.9606
-0.183534
19.3726
-0.231898
22.0339
-0.266723
20.9106
-0.265906
16.6859
-0.228264
13.4498
-0.1786
10.9414
-0.119625
9.02314
-0.04719
7.23808
0.0253331
5.9322
0.0855144
4.85616
0.119921
3.99699
3.03097
-0.0076994
5.29861
-0.0172049
6.9838
-0.0288003
8.13918
-0.039139
9.53166
-0.052255
11.0841
-0.0672402
12.8371
-0.0870816
14.8011
-0.113933
16.9874
-0.149023
19.4077
-0.189938
22.0748
-0.217773
20.9384
-0.219099
16.6872
-0.193158
13.4238
-0.149564
10.8978
-0.0732186
8.9468
-0.0376878
7.20255
0.000925357
5.89359
0.0289215
4.82816
0.0498707
3.97604
3.08084
-0.00458275
5.3032
-0.00934327
6.98856
-0.0186618
8.1485
-0.0263625
9.53936
-0.0334093
11.0912
-0.0425251
12.8462
-0.0566799
14.8152
-0.0772471
17.008
-0.10516
19.4356
-0.139569
22.1092
-0.163312
20.9622
-0.167245
16.6912
-0.154281
13.4109
-0.122435
10.866
-0.0559139
8.88028
-0.0381711
7.18481
-0.0212277
5.87664
-0.00974334
4.81668
-0.00384468
3.97014
3.077
-8.25157e-05
5.30328
0.000929865
6.98755
-0.00294155
8.15237
-0.00709079
9.54351
-0.00789446
11.092
-0.0116332
12.8499
-0.0187776
14.8224
-0.0319619
17.0212
-0.0521463
19.4558
-0.0799191
22.137
-0.102139
20.9844
-0.110305
16.6993
-0.107758
13.4083
-0.0889044
10.8471
-0.0443454
8.83572
-0.0369775
7.17744
-0.0316513
5.87132
-0.0294168
4.81445
-0.0238622
3.96459
3.05314
0.00548602
5.29779
0.0141816
6.97885
0.0186542
8.14789
0.0239573
9.53821
0.0314197
11.0845
0.0358408
12.8455
0.0360092
14.8222
0.028539
17.0286
0.0101714
19.4741
-0.01208
22.1593
-0.0325216
21.0048
-0.045908
16.7127
-0.052072
13.4145
-0.0475983
10.8426
-0.0274819
8.8156
-0.0272907
7.17725
-0.0313283
5.87536
-0.0311043
4.81422
-0.0328668
3.96635
3.02027
0.0144453
5.28335
0.0320475
6.96125
0.0481339
8.13181
0.0644587
9.52188
0.0805447
11.0684
0.0960335
12.83
0.1079
14.8103
0.11204
17.0245
0.10489
19.4813
0.0819847
22.1822
0.0528859
21.0339
0.0298917
16.7357
0.0125094
13.4319
0.00308066
10.8521
0.00199928
8.81668
-0.00635897
7.18561
-0.011668
5.88066
-0.0234522
4.82601
-0.0233813
3.96628
2.99689
0.0225121
5.26084
0.0506625
6.9331
0.0767276
8.10574
0.108405
9.49021
0.140309
11.0365
0.171584
12.7988
0.198327
14.7836
0.215434
17.0074
0.216679
19.48
0.196426
22.2024
0.160037
21.0703
0.123826
16.7719
0.0921659
13.4635
0.0663092
10.8779
0.0476634
8.83533
0.0291384
7.20413
0.0139592
5.89584
-0.00202452
4.84199
-0.0115027
3.97576
2.98539
0.0363789
5.22446
0.0772588
6.89222
0.119461
8.06354
0.169498
9.44017
0.219869
10.9861
0.270213
12.7484
0.315095
14.7387
0.347539
16.9749
0.358906
19.4687
0.339732
22.2216
0.293094
21.1169
0.239893
16.8251
0.188846
13.5146
0.143525
10.9232
0.105286
8.87357
0.0716462
7.23777
0.0430928
5.9244
0.0201805
4.8649
0.00112633
3.99481
2.98651
0.0474579
5.177
0.105335
6.83434
0.171642
7.99723
0.246539
9.36527
0.323584
10.9091
0.399963
12.672
0.468382
14.6703
0.520154
16.9232
0.544001
19.4448
0.525461
22.2401
0.465278
21.1771
0.390056
16.9003
0.313853
13.5908
0.243446
10.9936
0.181938
8.93508
0.129303
7.29041
0.0853953
5.96831
0.0501135
4.90018
0.0201792
4.02475
3.00669
0.0790481
5.09795
0.16729
6.7461
0.25919
7.90533
0.363898
9.26056
0.47201
10.801
0.578685
12.5654
0.675214
14.5738
0.750548
16.8478
0.789844
19.4055
0.772954
22.257
0.696575
21.2535
0.593935
17.003
0.485295
13.6994
0.381659
11.0973
0.288659
9.02808
0.20815
7.37092
0.140137
6.03632
0.0838932
4.95643
0.0366097
4.07203
3.0433
0.100979
4.99697
0.228733
6.61835
0.370012
7.76405
0.523034
9.10754
0.67572
10.6483
0.822733
12.4184
0.954669
14.4418
1.05884
16.7437
1.11746
19.3469
1.10452
22.27
1.01106
21.347
0.876368
17.1377
0.726974
13.8488
0.578779
11.2455
0.4412
9.16566
0.319165
7.49295
0.214579
6.1409
0.127615
5.04339
0.0559735
4.14367
3.09927
0.191292
4.80568
0.39275
6.41689
0.579754
7.57705
0.77369
8.91361
0.970298
10.4517
1.1616
12.227
1.33538
14.2681
1.47617
16.6029
1.5627
19.2604
1.56248
22.2702
1.45861
21.4508
1.29464
17.3017
1.10297
14.0405
0.903965
11.4445
0.710596
9.35902
0.53074
7.67281
0.368685
6.30296
0.226293
5.18578
0.104473
4.26549
3.20375
0.32145
4.48423
0.618609
6.11973
0.887612
7.30805
1.15696
8.64426
1.41589
10.1928
1.65954
11.9834
1.88002
14.0476
2.06294
16.4199
2.18469
19.1386
2.20677
22.2481
2.1018
21.5558
1.91442
17.489
1.6814
14.2735
1.42555
11.7003
1.16204
9.62253
0.901351
7.9335
0.650746
6.55356
0.414736
5.42179
0.196483
4.48374
3.40023
0.229711
4.25452
0.514351
5.83509
0.815396
7.007
1.11635
8.3433
1.39236
9.91675
1.62781
11.7479
1.80937
13.866
1.923
16.3063
1.95195
19.1097
1.87507
22.325
1.70374
21.7271
1.49734
17.6954
1.28164
14.4892
1.06855
11.9134
0.863574
9.8275
0.668869
8.1282
0.484853
6.73758
0.31102
5.59563
0.147452
4.64731
3.54768
0.0773408
4.17718
0.241175
5.67126
0.444931
6.80325
0.666448
8.12178
0.89762
9.68558
1.12083
11.5247
1.31465
13.6722
1.45681
16.1642
1.52454
19.0419
1.49356
22.356
1.36541
21.8553
1.19294
17.8679
1.0048
14.6774
0.815798
12.1024
0.634181
10.0091
0.465309
8.29707
0.313371
6.88952
0.181771
5.72723
0.0736772
4.75541
3.62136
0.0654411
4.11174
0.192709
5.54399
0.333979
6.66198
0.486632
7.96913
0.651512
9.5207
0.822072
11.3542
0.98395
13.5103
1.11641
16.0317
1.19414
18.9642
1.18877
22.3613
1.09317
21.9509
0.952508
18.0086
0.795792
14.8341
0.639353
12.2589
0.492563
10.1559
0.360506
8.42913
0.244973
7.00505
0.145206
5.82699
0.059541
4.84107
3.6809
0.0470342
4.0647
0.143359
5.44766
0.252875
6.55246
0.37192
7.85009
0.499351
9.39327
0.631279
11.2222
0.759561
13.382
0.870077
15.9212
0.941783
18.8925
0.947416
22.3557
0.875481
22.0228
0.762944
18.1211
0.636393
14.9606
0.510769
12.3845
0.393815
10.2729
0.288781
8.53417
0.196269
7.09756
0.11568
5.90758
0.04645
4.9103
3.72735
0.0344017
4.0303
0.10281
5.37926
0.18388
6.47139
0.275849
7.75812
0.377052
9.29206
0.483322
11.116
0.587876
13.2775
0.679886
15.8292
0.742758
18.8296
0.753245
22.3452
0.699067
22.077
0.6098
18.2104
0.508273
15.0622
0.407142
12.4856
0.312804
10.3672
0.228062
8.61891
0.153799
7.17183
0.0899251
5.97146
0.0358493
4.96438
3.7632
0.0278387
4.00246
0.0776152
5.32948
0.137404
6.4116
0.206634
7.68889
0.284715
9.21398
0.368828
11.0319
0.45358
13.1927
0.529976
15.7528
0.584273
18.7753
0.59687
22.3326
0.556061
22.1178
0.485377
18.281
0.404019
15.1435
0.322717
12.5669
0.247005
10.4429
0.179378
8.68653
0.12058
7.23062
0.0704034
6.02163
0.0281182
5.00666
3.79132
0.0226709
3.97979
0.0601351
5.29201
0.105438
6.3663
0.158161
7.63617
0.218128
9.15402
0.283691
10.9663
0.351062
13.1254
0.413236
15.6906
0.458979
18.7296
0.471801
22.3198
0.440957
22.1487
0.385107
18.3369
0.320249
15.2084
0.25538
12.6318
0.195124
10.5032
0.141494
8.74016
0.0950048
7.27711
0.0554067
6.06123
0.0221117
5.03996
3.81343
0.0181236
3.96167
0.0466644
5.26347
0.0814263
6.33154
0.122085
7.59551
0.168522
9.10758
0.21967
10.9151
0.272833
13.0722
0.322713
15.6407
0.360396
18.6919
0.372292
22.3079
0.348892
22.1721
0.304907
18.3809
0.253474
15.2598
0.201979
12.6833
0.154186
10.551
0.111702
8.78265
0.0749155
7.3139
0.0436173
6.09253
0.0173747
5.0662
3.8308
0.0143471
3.94732
0.036209
5.24161
0.0629612
6.30478
0.0944738
7.56399
0.130599
9.07145
0.170612
10.8751
0.212526
13.0303
0.252304