/*--------------------------------*- C++ -*----------------------------------*\
| =========                 |                                                 |
| \\      /  F ield         | OpenFOAM: The Open Source CFD Toolbox           |
|  \\    /   O peration     | Version:  2412                                  |
|   \\  /    A nd           | Website:  www.openfoam.com                      |
|    \\/     M anipulation  |                                                 |
\*---------------------------------------------------------------------------*/
FoamFile
{
    version     2.0;
    format      ascii;
    arch        "LSB;label=32;scalar=64";
    class       surfaceScalarField;
    location    "0.42";
    object      phi;
}
// * * * * * * * * * * * * * * * * * * * * * * * * * * * * * * * * * * * * * //

dimensions      [0 3 -1 0 0 0 0];

oriented        oriented;

internalField   nonuniform List<scalar> 
799
(
3.38706e-05
6.77413e-05
0.000101612
0.000135482
0.000169351
0.000203219
0.000237086
0.000270952
0.000304817
0.00033868
0.000372542
0.000406402
0.000440259
0.000474115
0.000507968
0.000541818
0.000575666
0.000609511
0.000643353
0.000677191
0.000711027
0.000744858
0.000778686
0.00081251
0.00084633
0.000880146
0.000913957
0.000947763
0.000981565
0.00101536
0.00104915
0.00108294
0.00111672
0.0011505
0.00118427
0.00121803
0.00125179
0.00128554
0.00131928
0.00135302
0.00138675
0.00142047
0.00145419
0.0014879
0.0015216
0.0015553
0.00158898
0.00162266
0.00165633
0.00168999
0.00172364
0.00175728
0.00179092
0.00182454
0.00185816
0.00189177
0.00192536
0.00195895
0.00199253
0.00202609
0.00205965
0.00209319
0.00212673
0.00216025
0.00219376
0.00222726
0.00226075
0.00229423
0.00232769
0.00236114
0.00239458
0.00242801
0.00246142
0.00249483
0.00252821
0.00256159
0.00259495
0.0026283
0.00266163
0.00269495
0.00272826
0.00276155
0.00279483
0.00282809
0.00286133
0.00289456
0.00292778
0.00296098
0.00299416
0.00302733
0.00306048
0.00309361
0.00312673
0.00315983
0.00319291
0.00322597
0.00325902
0.00329205
0.00332506
0.00335806
0.00339103
0.00342399
0.00345692
0.00348984
0.00352274
0.00355562
0.00358848
0.00362131
0.00365413
0.00368693
0.00371971
0.00375246
0.00378519
0.00381791
0.0038506
0.00388327
0.00391591
0.00394854
0.00398114
0.00401372
0.00404627
0.0040788
0.00411131
0.00414379
0.00417625
0.00420869
0.0042411
0.00427348
0.00430584
0.00433818
0.00437049
0.00440277
0.00443503
0.00446726
0.00449946
0.00453163
0.00456378
0.0045959
0.004628
0.00466006
0.0046921
0.0047241
0.00475608
0.00478803
0.00481995
0.00485184
0.0048837
0.00491552
0.00494732
0.00497909
0.00501082
0.00504252
0.00507419
0.00510583
0.00513744
0.00516901
0.00520055
0.00523206
0.00526353
0.00529496
0.00532637
0.00535773
0.00538907
0.00542036
0.00545162
0.00548285
0.00551403
0.00554519
0.0055763
0.00560737
0.00563841
0.00566941
0.00570037
0.00573129
0.00576217
0.00579301
0.00582381
0.00585457
0.00588529
0.00591597
0.0059466
0.00597719
0.00600774
0.00603825
0.00606871
0.00609913
0.00612951
0.00615984
0.00619012
0.00622036
0.00625056
0.0062807
0.0063108
0.00634085
0.00637086
0.00640081
0.00643072
0.00646058
0.00649039
0.00652014
0.00654985
0.00657951
0.00660911
0.00663866
0.00666816
0.00669761
0.006727
0.00675634
0.00678562
0.00681485
0.00684402
0.00687314
0.00690219
0.00693119
0.00696014
0.00698902
0.00701785
0.00704661
0.00707531
0.00710396
0.00713254
0.00716106
0.00718951
0.00721791
0.00724623
0.0072745
0.0073027
0.00733083
0.00735889
0.00738689
0.00741482
0.00744268
0.00747047
0.00749819
0.00752584
0.00755341
0.00758092
0.00760835
0.0076357
0.00766299
0.00769019
0.00771732
0.00774437
0.00777135
0.00779824
0.00782506
0.00785179
0.00787844
0.00790501
0.0079315
0.0079579
0.00798422
0.00801045
0.00803659
0.00806264
0.00808861
0.00811449
0.00814027
0.00816596
0.00819156
0.00821706
0.00824247
0.00826779
0.008293
0.00831812
0.00834313
0.00836805
0.00839286
0.00841757
0.00844217
0.00846667
0.00849106
0.00851534
0.00853951
0.00856357
0.00858752
0.00861135
0.00863507
0.00865867
0.00868215
0.00870551
0.00872875
0.00875187
0.00877486
0.00879773
0.00882047
0.00884308
0.00886555
0.0088879
0.0089101
0.00893217
0.00895411
0.0089759
0.00899755
0.00901905
0.00904041
0.00906162
0.00908268
0.00910359
0.00912434
0.00914493
0.00916536
0.00918564
0.00920574
0.00922568
0.00924545
0.00926505
0.00928448
0.00930372
0.00932279
0.00934167
0.00936037
0.00937888
0.0093972
0.00941532
0.00943324
0.00945096
0.00946848
0.00948579
0.00950289
0.00951977
0.00953643
0.00955287
0.00956908
0.00958506
0.00960081
0.00961632
0.00963158
0.0096466
0.00966136
0.00967586
0.0096901
0.00970408
0.00971778
0.0097312
0.00974433
0.00975718
0.00976973
0.00978198
0.00979393
0.00980555
0.00981686
0.00982783
0.00983847
0.00984877
0.00985872
0.0098683
0.00987752
0.00988637
0.00989482
0.00990289
0.00991054
0.00991779
0.00992461
0.00993099
0.00993692
0.0099424
0.00994741
0.00995193
0.00995595
0.00995946
0.00996244
0.00996488
0.00996676
0.00996806
0.00996877
0.00996887
0.00996834
0.00996715
0.00996528
0.00996272
0.00995944
0.0099554
0.00995059
0.00994497
0.00993851
0.00993119
0.00992296
0.00991378
0.00990362
0.00989244
0.00988018
0.0098668
0.00985224
0.00983645
0.00981936
0.0098009
0.009781
0.00975958
0.00973654
0.0097118
0.00968523
0.00965671
0.00962612
0.00959329
0.00955826
0.00951701
0.00952737
0.00753542
6.27679e-06
-0.00752888
-0.0095271
-0.00951699
-0.00955822
-0.00959326
-0.00962609
-0.00965669
-0.0096852
-0.00971178
-0.00973653
-0.00975956
-0.00978099
-0.00980089
-0.00981935
-0.00983644
-0.00985223
-0.00986679
-0.00988017
-0.00989243
-0.00990362
-0.00991378
-0.00992295
-0.00993118
-0.00993851
-0.00994497
-0.00995059
-0.0099554
-0.00995943
-0.00996272
-0.00996528
-0.00996715
-0.00996834
-0.00996887
-0.00996877
-0.00996806
-0.00996676
-0.00996488
-0.00996244
-0.00995946
-0.00995595
-0.00995192
-0.0099474
-0.0099424
-0.00993692
-0.00993099
-0.0099246
-0.00991779
-0.00991054
-0.00990288
-0.00989482
-0.00988636
-0.00987752
-0.0098683
-0.00985871
-0.00984877
-0.00983847
-0.00982783
-0.00981685
-0.00980555
-0.00979392
-0.00978198
-0.00976973
-0.00975718
-0.00974433
-0.00973119
-0.00971777
-0.00970407
-0.00969009
-0.00967585
-0.00966135
-0.00964659
-0.00963157
-0.00961631
-0.0096008
-0.00958505
-0.00956907
-0.00955286
-0.00953642
-0.00951976
-0.00950287
-0.00948578
-0.00946847
-0.00945095
-0.00943323
-0.0094153
-0.00939718
-0.00937886
-0.00936036
-0.00934166
-0.00932277
-0.00930371
-0.00928446
-0.00926504
-0.00924544
-0.00922567
-0.00920573
-0.00918562
-0.00916535
-0.00914491
-0.00912432
-0.00910357
-0.00908266
-0.0090616
-0.00904039
-0.00901904
-0.00899753
-0.00897588
-0.00895409
-0.00893216
-0.00891009
-0.00888788
-0.00886553
-0.00884306
-0.00882045
-0.00879771
-0.00877484
-0.00875185
-0.00872874
-0.00870549
-0.00868213
-0.00865865
-0.00863505
-0.00861133
-0.0085875
-0.00856355
-0.00853949
-0.00851532
-0.00849104
-0.00846665
-0.00844215
-0.00841755
-0.00839284
-0.00836803
-0.00834311
-0.0083181
-0.00829298
-0.00826776
-0.00824245
-0.00821704
-0.00819154
-0.00816594
-0.00814025
-0.00811446
-0.00808859
-0.00806262
-0.00803657
-0.00801042
-0.00798419
-0.00795788
-0.00793148
-0.00790499
-0.00787842
-0.00785177
-0.00782503
-0.00779822
-0.00777132
-0.00774435
-0.0077173
-0.00769017
-0.00766296
-0.00763568
-0.00760833
-0.00758089
-0.00755339
-0.00752581
-0.00749817
-0.00747045
-0.00744266
-0.0074148
-0.00738687
-0.00735887
-0.00733081
-0.00730267
-0.00727448
-0.00724621
-0.00721788
-0.00718949
-0.00716104
-0.00713252
-0.00710394
-0.00707529
-0.00704659
-0.00701782
-0.006989
-0.00696012
-0.00693117
-0.00690217
-0.00687312
-0.006844
-0.00681483
-0.0067856
-0.00675632
-0.00672698
-0.00669759
-0.00666814
-0.00663864
-0.00660909
-0.00657949
-0.00654983
-0.00652013
-0.00649037
-0.00646056
-0.0064307
-0.0064008
-0.00637084
-0.00634084
-0.00631078
-0.00628068
-0.00625054
-0.00622034
-0.00619011
-0.00615982
-0.00612949
-0.00609912
-0.0060687
-0.00603823
-0.00600773
-0.00597718
-0.00594658
-0.00591595
-0.00588527
-0.00585455
-0.00582379
-0.00579299
-0.00576215
-0.00573127
-0.00570035
-0.00566939
-0.00563839
-0.00560736
-0.00557628
-0.00554517
-0.00551402
-0.00548283
-0.00545161
-0.00542035
-0.00538905
-0.00535772
-0.00532635
-0.00529495
-0.00526351
-0.00523204
-0.00520054
-0.005169
-0.00513742
-0.00510582
-0.00507418
-0.00504251
-0.00501081
-0.00497907
-0.00494731
-0.00491551
-0.00488368
-0.00485182
-0.00481994
-0.00478802
-0.00475607
-0.00472409
-0.00469208
-0.00466005
-0.00462798
-0.00459589
-0.00456377
-0.00453162
-0.00449945
-0.00446724
-0.00443502
-0.00440276
-0.00437048
-0.00433817
-0.00430583
-0.00427347
-0.00424109
-0.00420868
-0.00417624
-0.00414378
-0.0041113
-0.00407879
-0.00404626
-0.00401371
-0.00398113
-0.00394853
-0.0039159
-0.00388326
-0.00385059
-0.0038179
-0.00378519
-0.00375245
-0.0037197
-0.00368692
-0.00365412
-0.00362131
-0.00358847
-0.00355561
-0.00352273
-0.00348983
-0.00345692
-0.00342398
-0.00339102
-0.00335805
-0.00332506
-0.00329205
-0.00325902
-0.00322597
-0.0031929
-0.00315982
-0.00312672
-0.0030936
-0.00306047
-0.00302732
-0.00299415
-0.00296097
-0.00292777
-0.00289456
-0.00286133
-0.00282808
-0.00279482
-0.00276154
-0.00272825
-0.00269495
-0.00266163
-0.0026283
-0.00259495
-0.00256159
-0.00252821
-0.00249482
-0.00246142
-0.00242801
-0.00239458
-0.00236114
-0.00232769
-0.00229422
-0.00226075
-0.00222726
-0.00219376
-0.00216025
-0.00212672
-0.00209319
-0.00205964
-0.00202609
-0.00199252
-0.00195895
-0.00192536
-0.00189176
-0.00185816
-0.00182454
-0.00179092
-0.00175728
-0.00172364
-0.00168999
-0.00165633
-0.00162266
-0.00158898
-0.00155529
-0.0015216
-0.0014879
-0.00145419
-0.00142047
-0.00138675
-0.00135302
-0.00131928
-0.00128554
-0.00125179
-0.00121803
-0.00118426
-0.0011505
-0.00111672
-0.00108294
-0.00104915
-0.00101536
-0.000981564
-0.000947763
-0.000913956
-0.000880145
-0.00084633
-0.00081251
-0.000778686
-0.000744858
-0.000711026
-0.000677191
-0.000643353
-0.000609511
-0.000575666
-0.000541818
-0.000507968
-0.000474115
-0.000440259
-0.000406402
-0.000372542
-0.000338681
-0.000304817
-0.000270953
-0.000237086
-0.000203219
-0.000169351
-0.000135482
-0.000101612
-6.77415e-05
-3.38709e-05
)
;

boundaryField
{
    left
    {
        type            calculated;
        value           uniform 0;
    }
    right
    {
        type            calculated;
        value           uniform 0;
    }
    frontBackUpDown
    {
        type            empty;
    }
}


// ************************************************************************* //
