/*--------------------------------*- C++ -*----------------------------------*\
| =========                 |                                                 |
| \\      /  F ield         | OpenFOAM: The Open Source CFD Toolbox           |
|  \\    /   O peration     | Version:  2412                                  |
|   \\  /    A nd           | Website:  www.openfoam.com                      |
|    \\/     M anipulation  |                                                 |
\*---------------------------------------------------------------------------*/
FoamFile
{
    version     2.0;
    format      ascii;
    arch        "LSB;label=32;scalar=64";
    class       volVectorField;
    location    "0.42";
    object      U_0_0_0;
}
// * * * * * * * * * * * * * * * * * * * * * * * * * * * * * * * * * * * * * //

dimensions      [0 1 -1 0 0 0 0];

internalField   nonuniform List<vector> 
800
(
(0.00169697 0 0)
(0.00509093 0 0)
(0.00848487 0 0)
(0.0118788 0 0)
(0.0152726 0 0)
(0.0186664 0 0)
(0.02206 0 0)
(0.0254536 0 0)
(0.028847 0 0)
(0.0322403 0 0)
(0.0356334 0 0)
(0.0390264 0 0)
(0.0424191 0 0)
(0.0458117 0 0)
(0.049204 0 0)
(0.052596 0 0)
(0.0559878 0 0)
(0.0593793 0 0)
(0.0627705 0 0)
(0.0661614 0 0)
(0.069552 0 0)
(0.0729422 0 0)
(0.076332 0 0)
(0.0797215 0 0)
(0.0831105 0 0)
(0.0864991 0 0)
(0.0898873 0 0)
(0.093275 0 0)
(0.0966623 0 0)
(0.100049 0 0)
(0.103435 0 0)
(0.106821 0 0)
(0.110206 0 0)
(0.113591 0 0)
(0.116975 0 0)
(0.120358 0 0)
(0.123741 0 0)
(0.127123 0 0)
(0.130505 0 0)
(0.133886 0 0)
(0.137266 0 0)
(0.140646 0 0)
(0.144024 0 0)
(0.147402 0 0)
(0.15078 0 0)
(0.154156 0 0)
(0.157532 0 0)
(0.160907 0 0)
(0.164281 0 0)
(0.167654 0 0)
(0.171027 0 0)
(0.174398 0 0)
(0.177769 0 0)
(0.181138 0 0)
(0.184507 0 0)
(0.187875 0 0)
(0.191242 0 0)
(0.194607 0 0)
(0.197972 0 0)
(0.201336 0 0)
(0.204699 0 0)
(0.20806 0 0)
(0.211421 0 0)
(0.21478 0 0)
(0.218139 0 0)
(0.221496 0 0)
(0.224852 0 0)
(0.228207 0 0)
(0.23156 0 0)
(0.234913 0 0)
(0.238264 0 0)
(0.241614 0 0)
(0.244962 0 0)
(0.24831 0 0)
(0.251656 0 0)
(0.255 0 0)
(0.258344 0 0)
(0.261686 0 0)
(0.265026 0 0)
(0.268365 0 0)
(0.271703 0 0)
(0.275039 0 0)
(0.278374 0 0)
(0.281707 0 0)
(0.285039 0 0)
(0.288369 0 0)
(0.291698 0 0)
(0.295025 0 0)
(0.29835 0 0)
(0.301674 0 0)
(0.304996 0 0)
(0.308317 0 0)
(0.311636 0 0)
(0.314953 0 0)
(0.318268 0 0)
(0.321582 0 0)
(0.324894 0 0)
(0.328204 0 0)
(0.331512 0 0)
(0.334818 0 0)
(0.338123 0 0)
(0.341425 0 0)
(0.344726 0 0)
(0.348025 0 0)
(0.351322 0 0)
(0.354617 0 0)
(0.35791 0 0)
(0.361201 0 0)
(0.364489 0 0)
(0.367776 0 0)
(0.371061 0 0)
(0.374343 0 0)
(0.377624 0 0)
(0.380902 0 0)
(0.384178 0 0)
(0.387452 0 0)
(0.390724 0 0)
(0.393993 0 0)
(0.39726 0 0)
(0.400525 0 0)
(0.403788 0 0)
(0.407048 0 0)
(0.410305 0 0)
(0.413561 0 0)
(0.416814 0 0)
(0.420064 0 0)
(0.423312 0 0)
(0.426557 0 0)
(0.4298 0 0)
(0.433041 0 0)
(0.436278 0 0)
(0.439514 0 0)
(0.442746 0 0)
(0.445976 0 0)
(0.449203 0 0)
(0.452428 0 0)
(0.455649 0 0)
(0.458868 0 0)
(0.462084 0 0)
(0.465297 0 0)
(0.468508 0 0)
(0.471715 0 0)
(0.47492 0 0)
(0.478122 0 0)
(0.48132 0 0)
(0.484516 0 0)
(0.487708 0 0)
(0.490898 0 0)
(0.494084 0 0)
(0.497268 0 0)
(0.500448 0 0)
(0.503625 0 0)
(0.506799 0 0)
(0.509969 0 0)
(0.513136 0 0)
(0.5163 0 0)
(0.519461 0 0)
(0.522618 0 0)
(0.525772 0 0)
(0.528922 0 0)
(0.532069 0 0)
(0.535212 0 0)
(0.538352 0 0)
(0.541488 0 0)
(0.54462 0 0)
(0.547749 0 0)
(0.550875 0 0)
(0.553996 0 0)
(0.557114 0 0)
(0.560228 0 0)
(0.563338 0 0)
(0.566444 0 0)
(0.569546 0 0)
(0.572645 0 0)
(0.575739 0 0)
(0.57883 0 0)
(0.581916 0 0)
(0.584998 0 0)
(0.588077 0 0)
(0.591151 0 0)
(0.59422 0 0)
(0.597286 0 0)
(0.600347 0 0)
(0.603404 0 0)
(0.606456 0 0)
(0.609505 0 0)
(0.612548 0 0)
(0.615587 0 0)
(0.618622 0 0)
(0.621652 0 0)
(0.624677 0 0)
(0.627698 0 0)
(0.630714 0 0)
(0.633725 0 0)
(0.636732 0 0)
(0.639733 0 0)
(0.64273 0 0)
(0.645722 0 0)
(0.648708 0 0)
(0.65169 0 0)
(0.654667 0 0)
(0.657638 0 0)
(0.660604 0 0)
(0.663565 0 0)
(0.666521 0 0)
(0.669471 0 0)
(0.672416 0 0)
(0.675356 0 0)
(0.67829 0 0)
(0.681218 0 0)
(0.684141 0 0)
(0.687058 0 0)
(0.68997 0 0)
(0.692875 0 0)
(0.695775 0 0)
(0.698669 0 0)
(0.701557 0 0)
(0.704439 0 0)
(0.707315 0 0)
(0.710184 0 0)
(0.713048 0 0)
(0.715905 0 0)
(0.718756 0 0)
(0.7216 0 0)
(0.724439 0 0)
(0.72727 0 0)
(0.730095 0 0)
(0.732913 0 0)
(0.735725 0 0)
(0.73853 0 0)
(0.741328 0 0)
(0.744119 0 0)
(0.746903 0 0)
(0.74968 0 0)
(0.75245 0 0)
(0.755212 0 0)
(0.757968 0 0)
(0.760716 0 0)
(0.763456 0 0)
(0.766189 0 0)
(0.768915 0 0)
(0.771632 0 0)
(0.774342 0 0)
(0.777044 0 0)
(0.779738 0 0)
(0.782424 0 0)
(0.785102 0 0)
(0.787772 0 0)
(0.790433 0 0)
(0.793087 0 0)
(0.795731 0 0)
(0.798367 0 0)
(0.800995 0 0)
(0.803613 0 0)
(0.806223 0 0)
(0.808824 0 0)
(0.811415 0 0)
(0.813998 0 0)
(0.816571 0 0)
(0.819135 0 0)
(0.82169 0 0)
(0.824235 0 0)
(0.82677 0 0)
(0.829295 0 0)
(0.831811 0 0)
(0.834316 0 0)
(0.836811 0 0)
(0.839296 0 0)
(0.841771 0 0)
(0.844235 0 0)
(0.846688 0 0)
(0.849131 0 0)
(0.851562 0 0)
(0.853983 0 0)
(0.856392 0 0)
(0.85879 0 0)
(0.861177 0 0)
(0.863552 0 0)
(0.865915 0 0)
(0.868266 0 0)
(0.870606 0 0)
(0.872933 0 0)
(0.875247 0 0)
(0.877549 0 0)
(0.879839 0 0)
(0.882115 0 0)
(0.884379 0 0)
(0.886629 0 0)
(0.888866 0 0)
(0.89109 0 0)
(0.893299 0 0)
(0.895495 0 0)
(0.897676 0 0)
(0.899844 0 0)
(0.901996 0 0)
(0.904135 0 0)
(0.906258 0 0)
(0.908366 0 0)
(0.910458 0 0)
(0.912535 0 0)
(0.914596 0 0)
(0.916641 0 0)
(0.91867 0 0)
(0.920683 0 0)
(0.922678 0 0)
(0.924657 0 0)
(0.926618 0 0)
(0.928562 0 0)
(0.930488 0 0)
(0.932396 0 0)
(0.934285 0 0)
(0.936156 0 0)
(0.938008 0 0)
(0.93984 0 0)
(0.941653 0 0)
(0.943447 0 0)
(0.945219 0 0)
(0.946972 0 0)
(0.948703 0 0)
(0.950413 0 0)
(0.952102 0 0)
(0.953768 0 0)
(0.955412 0 0)
(0.957033 0 0)
(0.958632 0 0)
(0.960206 0 0)
(0.961756 0 0)
(0.963282 0 0)
(0.964783 0 0)
(0.966259 0 0)
(0.967709 0 0)
(0.969132 0 0)
(0.970529 0 0)
(0.971898 0 0)
(0.973239 0 0)
(0.974551 0 0)
(0.975835 0 0)
(0.977088 0 0)
(0.978312 0 0)
(0.979504 0 0)
(0.980665 0 0)
(0.981794 0 0)
(0.982889 0 0)
(0.983951 0 0)
(0.984979 0 0)
(0.985971 0 0)
(0.986927 0 0)
(0.987846 0 0)
(0.988728 0 0)
(0.989571 0 0)
(0.990374 0 0)
(0.991137 0 0)
(0.991858 0 0)
(0.992536 0 0)
(0.993171 0 0)
(0.993761 0 0)
(0.994304 0 0)
(0.994801 0 0)
(0.995249 0 0)
(0.995646 0 0)
(0.995993 0 0)
(0.996286 0 0)
(0.996525 0 0)
(0.996709 0 0)
(0.996834 0 0)
(0.9969 0 0)
(0.996904 0 0)
(0.996845 0 0)
(0.99672 0 0)
(0.996528 0 0)
(0.996265 0 0)
(0.995931 0 0)
(0.995521 0 0)
(0.995033 0 0)
(0.994464 0 0)
(0.993812 0 0)
(0.993072 0 0)
(0.992242 0 0)
(0.991317 0 0)
(0.990294 0 0)
(0.989168 0 0)
(0.987934 0 0)
(0.986589 0 0)
(0.985125 0 0)
(0.983538 0 0)
(0.981821 0 0)
(0.979967 0 0)
(0.97797 0 0)
(0.97582 0 0)
(0.973508 0 0)
(0.971026 0 0)
(0.968362 0 0)
(0.965504 0 0)
(0.962439 0 0)
(0.959151 0 0)
(0.955622 0 0)
(0.951869 0 0)
(0.947161 0 0)
(0.952932 0 0)
(0.547783 0 0)
(-0.546537 0 0)
(-0.952875 0 0)
(-0.947161 0 0)
(-0.951864 0 0)
(-0.955618 0 0)
(-0.959147 0 0)
(-0.962436 0 0)
(-0.965501 0 0)
(-0.96836 0 0)
(-0.971024 0 0)
(-0.973506 0 0)
(-0.975818 0 0)
(-0.977968 0 0)
(-0.979966 0 0)
(-0.98182 0 0)
(-0.983537 0 0)
(-0.985124 0 0)
(-0.986588 0 0)
(-0.987934 0 0)
(-0.989167 0 0)
(-0.990293 0 0)
(-0.991317 0 0)
(-0.992242 0 0)
(-0.993072 0 0)
(-0.993812 0 0)
(-0.994464 0 0)
(-0.995033 0 0)
(-0.99552 0 0)
(-0.99593 0 0)
(-0.996265 0 0)
(-0.996528 0 0)
(-0.99672 0 0)
(-0.996845 0 0)
(-0.996904 0 0)
(-0.9969 0 0)
(-0.996834 0 0)
(-0.996708 0 0)
(-0.996525 0 0)
(-0.996286 0 0)
(-0.995993 0 0)
(-0.995646 0 0)
(-0.995248 0 0)
(-0.994801 0 0)
(-0.994304 0 0)
(-0.99376 0 0)
(-0.993171 0 0)
(-0.992536 0 0)
(-0.991857 0 0)
(-0.991136 0 0)
(-0.990374 0 0)
(-0.98957 0 0)
(-0.988728 0 0)
(-0.987846 0 0)
(-0.986927 0 0)
(-0.985971 0 0)
(-0.984978 0 0)
(-0.983951 0 0)
(-0.982889 0 0)
(-0.981793 0 0)
(-0.980665 0 0)
(-0.979504 0 0)
(-0.978311 0 0)
(-0.977088 0 0)
(-0.975834 0 0)
(-0.97455 0 0)
(-0.973238 0 0)
(-0.971897 0 0)
(-0.970528 0 0)
(-0.969131 0 0)
(-0.967708 0 0)
(-0.966258 0 0)
(-0.964783 0 0)
(-0.963281 0 0)
(-0.961755 0 0)
(-0.960205 0 0)
(-0.958631 0 0)
(-0.957032 0 0)
(-0.955411 0 0)
(-0.953767 0 0)
(-0.952101 0 0)
(-0.950412 0 0)
(-0.948702 0 0)
(-0.94697 0 0)
(-0.945218 0 0)
(-0.943445 0 0)
(-0.941652 0 0)
(-0.939839 0 0)
(-0.938006 0 0)
(-0.936155 0 0)
(-0.934284 0 0)
(-0.932394 0 0)
(-0.930486 0 0)
(-0.92856 0 0)
(-0.926617 0 0)
(-0.924655 0 0)
(-0.922677 0 0)
(-0.920681 0 0)
(-0.918669 0 0)
(-0.91664 0 0)
(-0.914595 0 0)
(-0.912533 0 0)
(-0.910456 0 0)
(-0.908364 0 0)
(-0.906256 0 0)
(-0.904133 0 0)
(-0.901995 0 0)
(-0.899842 0 0)
(-0.897675 0 0)
(-0.895493 0 0)
(-0.893297 0 0)
(-0.891088 0 0)
(-0.888864 0 0)
(-0.886627 0 0)
(-0.884377 0 0)
(-0.882113 0 0)
(-0.879837 0 0)
(-0.877547 0 0)
(-0.875245 0 0)
(-0.872931 0 0)
(-0.870604 0 0)
(-0.868264 0 0)
(-0.865913 0 0)
(-0.86355 0 0)
(-0.861175 0 0)
(-0.858788 0 0)
(-0.85639 0 0)
(-0.853981 0 0)
(-0.85156 0 0)
(-0.849128 0 0)
(-0.846686 0 0)
(-0.844233 0 0)
(-0.841769 0 0)
(-0.839294 0 0)
(-0.836809 0 0)
(-0.834314 0 0)
(-0.831808 0 0)
(-0.829293 0 0)
(-0.826768 0 0)
(-0.824233 0 0)
(-0.821688 0 0)
(-0.819133 0 0)
(-0.816569 0 0)
(-0.813996 0 0)
(-0.811413 0 0)
(-0.808822 0 0)
(-0.806221 0 0)
(-0.803611 0 0)
(-0.800992 0 0)
(-0.798365 0 0)
(-0.795729 0 0)
(-0.793084 0 0)
(-0.790431 0 0)
(-0.78777 0 0)
(-0.7851 0 0)
(-0.782422 0 0)
(-0.779736 0 0)
(-0.777042 0 0)
(-0.77434 0 0)
(-0.77163 0 0)
(-0.768912 0 0)
(-0.766187 0 0)
(-0.763454 0 0)
(-0.760714 0 0)
(-0.757966 0 0)
(-0.75521 0 0)
(-0.752448 0 0)
(-0.749678 0 0)
(-0.746901 0 0)
(-0.744117 0 0)
(-0.741326 0 0)
(-0.738528 0 0)
(-0.735723 0 0)
(-0.732911 0 0)
(-0.730093 0 0)
(-0.727268 0 0)
(-0.724436 0 0)
(-0.721598 0 0)
(-0.718754 0 0)
(-0.715903 0 0)
(-0.713046 0 0)
(-0.710182 0 0)
(-0.707312 0 0)
(-0.704437 0 0)
(-0.701555 0 0)
(-0.698667 0 0)
(-0.695773 0 0)
(-0.692873 0 0)
(-0.689967 0 0)
(-0.687056 0 0)
(-0.684139 0 0)
(-0.681216 0 0)
(-0.678288 0 0)
(-0.675354 0 0)
(-0.672414 0 0)
(-0.669469 0 0)
(-0.666519 0 0)
(-0.663563 0 0)
(-0.660602 0 0)
(-0.657636 0 0)
(-0.654665 0 0)
(-0.651688 0 0)
(-0.648706 0 0)
(-0.64572 0 0)
(-0.642728 0 0)
(-0.639731 0 0)
(-0.63673 0 0)
(-0.633723 0 0)
(-0.630712 0 0)
(-0.627696 0 0)
(-0.624676 0 0)
(-0.62165 0 0)
(-0.61862 0 0)
(-0.615586 0 0)
(-0.612546 0 0)
(-0.609503 0 0)
(-0.606455 0 0)
(-0.603402 0 0)
(-0.600345 0 0)
(-0.597284 0 0)
(-0.594219 0 0)
(-0.591149 0 0)
(-0.588075 0 0)
(-0.584997 0 0)
(-0.581914 0 0)
(-0.578828 0 0)
(-0.575738 0 0)
(-0.572643 0 0)
(-0.569545 0 0)
(-0.566442 0 0)
(-0.563336 0 0)
(-0.560226 0 0)
(-0.557112 0 0)
(-0.553994 0 0)
(-0.550873 0 0)
(-0.547748 0 0)
(-0.544619 0 0)
(-0.541486 0 0)
(-0.53835 0 0)
(-0.53521 0 0)
(-0.532067 0 0)
(-0.52892 0 0)
(-0.52577 0 0)
(-0.522616 0 0)
(-0.519459 0 0)
(-0.516299 0 0)
(-0.513135 0 0)
(-0.509968 0 0)
(-0.506797 0 0)
(-0.503623 0 0)
(-0.500446 0 0)
(-0.497266 0 0)
(-0.494083 0 0)
(-0.490897 0 0)
(-0.487707 0 0)
(-0.484515 0 0)
(-0.481319 0 0)
(-0.47812 0 0)
(-0.474919 0 0)
(-0.471714 0 0)
(-0.468507 0 0)
(-0.465296 0 0)
(-0.462083 0 0)
(-0.458867 0 0)
(-0.455648 0 0)
(-0.452426 0 0)
(-0.449202 0 0)
(-0.445975 0 0)
(-0.442745 0 0)
(-0.439513 0 0)
(-0.436277 0 0)
(-0.43304 0 0)
(-0.429799 0 0)
(-0.426556 0 0)
(-0.423311 0 0)
(-0.420063 0 0)
(-0.416813 0 0)
(-0.41356 0 0)
(-0.410304 0 0)
(-0.407047 0 0)
(-0.403787 0 0)
(-0.400524 0 0)
(-0.397259 0 0)
(-0.393992 0 0)
(-0.390723 0 0)
(-0.387451 0 0)
(-0.384177 0 0)
(-0.380901 0 0)
(-0.377623 0 0)
(-0.374343 0 0)
(-0.37106 0 0)
(-0.367775 0 0)
(-0.364489 0 0)
(-0.3612 0 0)
(-0.357909 0 0)
(-0.354616 0 0)
(-0.351321 0 0)
(-0.348024 0 0)
(-0.344726 0 0)
(-0.341425 0 0)
(-0.338122 0 0)
(-0.334818 0 0)
(-0.331511 0 0)
(-0.328203 0 0)
(-0.324893 0 0)
(-0.321581 0 0)
(-0.318268 0 0)
(-0.314952 0 0)
(-0.311635 0 0)
(-0.308316 0 0)
(-0.304996 0 0)
(-0.301674 0 0)
(-0.29835 0 0)
(-0.295024 0 0)
(-0.291697 0 0)
(-0.288369 0 0)
(-0.285039 0 0)
(-0.281707 0 0)
(-0.278374 0 0)
(-0.275039 0 0)
(-0.271703 0 0)
(-0.268365 0 0)
(-0.265026 0 0)
(-0.261685 0 0)
(-0.258343 0 0)
(-0.255 0 0)
(-0.251655 0 0)
(-0.248309 0 0)
(-0.244962 0 0)
(-0.241613 0 0)
(-0.238264 0 0)
(-0.234912 0 0)
(-0.23156 0 0)
(-0.228206 0 0)
(-0.224852 0 0)
(-0.221495 0 0)
(-0.218138 0 0)
(-0.21478 0 0)
(-0.211421 0 0)
(-0.20806 0 0)
(-0.204698 0 0)
(-0.201336 0 0)
(-0.197972 0 0)
(-0.194607 0 0)
(-0.191241 0 0)
(-0.187875 0 0)
(-0.184507 0 0)
(-0.181138 0 0)
(-0.177768 0 0)
(-0.174398 0 0)
(-0.171026 0 0)
(-0.167654 0 0)
(-0.164281 0 0)
(-0.160907 0 0)
(-0.157532 0 0)
(-0.154156 0 0)
(-0.15078 0 0)
(-0.147402 0 0)
(-0.144024 0 0)
(-0.140645 0 0)
(-0.137266 0 0)
(-0.133886 0 0)
(-0.130505 0 0)
(-0.127123 0 0)
(-0.123741 0 0)
(-0.120358 0 0)
(-0.116975 0 0)
(-0.113591 0 0)
(-0.110206 0 0)
(-0.106821 0 0)
(-0.103435 0 0)
(-0.100049 0 0)
(-0.0966622 0 0)
(-0.093275 0 0)
(-0.0898872 0 0)
(-0.0864991 0 0)
(-0.0831104 0 0)
(-0.0797214 0 0)
(-0.076332 0 0)
(-0.0729421 0 0)
(-0.0695519 0 0)
(-0.0661614 0 0)
(-0.0627705 0 0)
(-0.0593793 0 0)
(-0.0559878 0 0)
(-0.052596 0 0)
(-0.049204 0 0)
(-0.0458117 0 0)
(-0.0424191 0 0)
(-0.0390264 0 0)
(-0.0356335 0 0)
(-0.0322403 0 0)
(-0.0288471 0 0)
(-0.0254536 0 0)
(-0.0220601 0 0)
(-0.0186664 0 0)
(-0.0152726 0 0)
(-0.0118788 0 0)
(-0.0084849 0 0)
(-0.00509096 0 0)
(-0.00169699 0 0)
)
;

boundaryField
{
    left
    {
        type            fixedValue;
        value           uniform (0 0 0);
    }
    right
    {
        type            fixedValue;
        value           uniform (0 0 0);
    }
    frontBackUpDown
    {
        type            empty;
    }
}


// ************************************************************************* //
