/*--------------------------------*- C++ -*----------------------------------*\
| =========                 |                                                 |
| \\      /  F ield         | OpenFOAM: The Open Source CFD Toolbox           |
|  \\    /   O peration     | Version:  2412                                  |
|   \\  /    A nd           | Website:  www.openfoam.com                      |
|    \\/     M anipulation  |                                                 |
\*---------------------------------------------------------------------------*/
FoamFile
{
    version     2.0;
    format      ascii;
    arch        "LSB;label=32;scalar=64";
    class       volScalarField;
    location    "6";
    object      p;
}
// * * * * * * * * * * * * * * * * * * * * * * * * * * * * * * * * * * * * * //

dimensions      [0 2 -2 0 0 0 0];

internalField   nonuniform List<scalar> 
2200
(
0.0404715
0.040476
0.041111
0.0436751
0.0506715
0.0665742
0.0965018
0.14782
0.229678
0.347362
0.477173
0.582816
0.653741
0.697967
0.72327
0.737085
0.744128
0.747115
0.748416
0.748773
0.0343347
0.0345527
0.0359793
0.0395452
0.0480684
0.0652287
0.0966502
0.149801
0.23201
0.350822
0.481444
0.586823
0.656185
0.698903
0.723659
0.73652
0.74264
0.74503
0.745579
0.745734
0.0274012
0.0272915
0.029262
0.0344565
0.0451054
0.0647668
0.0993863
0.154768
0.238341
0.360911
0.492003
0.596062
0.665416
0.707376
0.72997
0.740454
0.745395
0.747516
0.747685
0.748119
0.0200638
0.0199309
0.0220957
0.0281731
0.0410979
0.0648636
0.10322
0.161251
0.24776
0.372501
0.505773
0.612286
0.682108
0.72155
0.74087
0.748783
0.752083
0.754071
0.754976
0.755341
0.0105826
0.0105305
0.0110527
0.0153863
0.0296828
0.0574023
0.0993621
0.165131
0.259407
0.388318
0.525097
0.634312
0.701281
0.736548
0.753547
0.760935
0.764041
0.766261
0.768227
0.768836
-0.000772801
-0.00127665
-0.00249178
9.93852e-05
0.0121012
0.0378177
0.0856527
0.159574
0.26295
0.403059
0.546522
0.656057
0.722817
0.757733
0.773344
0.782546
0.78875
0.790917
0.795675
0.796635
-0.00915055
-0.0102792
-0.0104768
-0.00631051
0.000963653
0.0214589
0.0688609
0.145215
0.255843
0.409045
0.563011
0.678419
0.749439
0.789237
0.809218
0.823562
0.833891
0.834314
0.839229
0.841132
-0.0105718
-0.0122575
-0.0110633
-0.00568449
-0.000931581
0.0141799
0.0546809
0.126631
0.245469
0.414803
0.58137
0.706712
0.785126
0.834477
0.866135
0.887038
0.898547
0.903195
0.906176
0.908505
-0.00760845
-0.00949477
-0.00799235
-0.0031709
0.00214107
0.0176692
0.0495503
0.113911
0.236006
0.420752
0.605047
0.746145
0.839499
0.906948
0.954055
0.979418
0.99239
0.999789
1.00075
1.00397
-0.00839004
-0.0101615
-0.00881409
-0.00515755
0.00630495
0.0283044
0.0604844
0.124822
0.245703
0.436782
0.643504
0.812518
0.929885
1.01408
1.06869
1.0934
1.10505
1.11808
1.11757
1.12081
-0.0182718
-0.0198795
-0.0190931
-0.0165078
0.00205327
0.0349036
0.080169
0.158945
0.288092
0.486016
0.717591
0.919632
1.06091
1.14771
1.19848
1.22042
1.22982
1.24566
1.24589
1.24901
-0.0437313
-0.0448876
-0.0434097
-0.0399804
-0.0163308
0.0260689
0.0960084
0.203994
0.356386
0.577934
0.838574
1.06809
1.22221
1.30434
1.34003
1.36148
1.37029
1.38561
1.38871
1.39164
-0.0851067
-0.0868908
-0.0862481
-0.0833921
-0.057331
-0.00681858
0.0916143
0.238712
0.435146
0.70808
1.00574
1.25087
1.40101
1.47033
1.49383
1.51937
1.53143
1.54585
1.55197
1.55518
-0.135178
-0.137507
-0.139395
-0.137446
-0.116079
-0.0627754
0.052351
0.238794
0.503828
0.853226
1.19883
1.4493
1.58742
1.64892
1.67935
1.70716
1.72907
1.74337
1.75395
1.75799
-0.175638
-0.179071
-0.184829
-0.182644
-0.164031
-0.113175
0.00857305
0.215105
0.54029
0.972996
1.37687
1.64564
1.78711
1.86993
1.92328
1.95404
1.98158
2.00017
2.01297
2.01753
-0.212524
-0.214518
-0.217975
-0.215477
-0.193999
-0.138659
-0.0194952
0.190057
0.54755
1.0432
1.51539
1.84165
2.02793
2.15267
2.23464
2.27319
2.30536
2.32583
2.33831
2.34322
-0.247725
-0.250724
-0.255233
-0.252704
-0.226874
-0.166629
-0.0521258
0.168915
0.551481
1.09355
1.64446
2.06257
2.32541
2.49787
2.60514
2.65515
2.69025
2.71322
2.72567
2.73002
-0.305365
-0.306927
-0.310184
-0.310572
-0.283784
-0.208514
-0.0811473
0.163005
0.575428
1.17296
1.81558
2.33899
2.69003
2.9046
3.02436
3.08952
3.13042
3.15574
3.16876
3.17355
-0.403379
-0.405239
-0.407957
-0.407773
-0.378701
-0.286239
-0.118458
0.176434
0.651267
1.33938
2.09665
2.72413
3.14345
3.37259
3.49181
3.58452
3.62735
3.65625
3.67053
3.6752
-0.540477
-0.54328
-0.546662
-0.545481
-0.517109
-0.415038
-0.19229
0.199901
0.806133
1.64609
2.5381
3.23907
3.67699
3.90361
4.02746
4.13441
4.18232
4.21431
4.23091
4.23678
-0.743214
-0.744402
-0.746249
-0.743688
-0.702783
-0.583418
-0.310028
0.191047
0.982919
2.03259
3.0743
3.82274
4.25645
4.49711
4.63849
4.74666
4.80179
4.84125
4.86168
4.86452
-1.02512
-1.02757
-1.02925
-1.02022
-0.966135
-0.815739
-0.49064
0.0986557
1.06743
2.32586
3.52782
4.35926
4.85047
5.15569
5.32785
5.43934
5.50353
5.54463
5.56567
5.57339
-1.42865
-1.4262
-1.42135
-1.40481
-1.32648
-1.12734
-0.729348
-0.0389846
1.07189
2.48378
3.86457
4.8769
5.50664
5.88869
6.08445
6.20505
6.27579
6.31988
6.34478
6.35109
-2.00953
-2.00553
-1.98921
-1.9424
-1.81115
-1.51816
-0.991472
-0.142588
1.14443
2.73195
4.31664
5.52754
6.27497
6.68782
6.90105
7.02671
7.10537
7.1532
7.17953
7.18597
-2.8457
-2.81985
-2.76872
-2.6616
-2.43083
-2.00017
-1.27847
-0.18118
1.39026
3.23526
5.01774
6.34308
7.13207
7.54946
7.78002
7.91465
7.99248
8.0399
8.07651
8.08614
-4.00984
-3.94348
-3.79022
-3.55197
-3.17171
-2.55191
-1.58709
-0.179096
1.71368
3.83943
5.82824
7.23836
8.04667
8.47931
8.7318
8.87106
8.95818
9.01707
9.03946
9.03989
-5.55506
-5.34678
-4.98583
-4.55148
-3.97555
-3.11741
-1.88362
-0.16906
2.02073
4.45429
6.72986
8.30355
9.19171
9.69665
9.99162
10.1633
10.2651
10.3204
10.3573
10.3513
-7.43121
-6.8606
-6.24067
-5.60942
-4.80399
-3.68595
-2.16334
-0.136777
2.34353
5.11183
7.75271
9.56552
10.5892
11.2103
11.562
11.7892
11.9532
12.0719
12.1577
12.1648
-9.11294
-8.32289
-7.50643
-6.67192
-5.63568
-4.2551
-2.41882
-0.0531731
2.73853
5.83767
8.81374
10.8134
11.9538
12.6494
13.0929
13.3894
13.596
13.7408
13.8497
13.861
-10.4631
-9.56015
-8.64342
-7.64831
-6.40943
-4.78549
-2.65276
0.0536357
3.17042
6.58025
9.82542
11.9647
13.232
13.9953
14.4939
14.8248
15.0692
15.2604
15.4036
15.4249
-11.6004
-10.6085
-9.62149
-8.48506
-7.06521
-5.24769
-2.86526
0.142352
3.56461
7.2312
10.6902
12.9715
14.3353
15.1449
15.6922
16.083
16.3535
16.5435
16.6928
16.7211
-12.5236
-11.4596
-10.4299
-9.18082
-7.62758
-5.63698
-3.03192
0.213471
3.87566
7.75806
11.3611
13.7796
15.2078
16.0707
16.6387
17.0413
17.3401
17.5731
17.7535
17.7943
-13.3241
-12.1165
-11.0662
-9.76301
-8.10649
-5.94778
-3.14247
0.281488
4.10206
8.15013
11.8746
14.3954
15.8726
16.7709
17.3587
17.796
18.1352
18.4009
18.6183
18.6714
-13.9137
-12.6231
-11.5962
-10.2533
-8.49121
-6.17862
-3.21137
0.330933
4.25317
8.43544
12.2505
14.8364
16.3407
17.2774
17.915
18.3888
18.7574
19.0379
19.2694
19.3224
-14.4589
-13.0674
-12.011
-10.6094
-8.76091
-6.33745
-3.26215
0.338806
4.336
8.62477
12.497
15.117
16.6589
17.6496
18.3295
18.8431
19.2481
19.5552
19.8038
19.8525
-14.89
-13.4489
-12.343
-10.8453
-8.91532
-6.42277
-3.31045
0.300224
4.35809
8.72279
12.6284
15.2762
16.8751
17.932
18.6735
19.2359
19.6731
19.9724
20.2555
20.2892
-15.2531
-13.7866
-12.6099
-10.9831
-8.96713
-6.44899
-3.36175
0.235641
4.33686
8.74629
12.6669
15.3478
17.0223
18.1621
18.97
19.5612
20.0481
20.3629
20.636
20.6863
-15.5707
-14.0838
-12.7996
-11.0506
-8.96356
-6.45373
-3.4107
0.175904
4.29344
8.71736
12.642
15.3665
17.1374
18.3566
19.234
19.8521
20.3776
20.7131
20.9921
21.0432
-15.819
-14.3249
-12.9484
-11.0802
-8.95618
-6.46548
-3.44766
0.13444
4.24585
8.65964
12.5844
15.3511
17.2249
18.5127
19.4638
20.1368
20.6715
21.0469
21.3203
21.3778
-16.0714
-14.5381
-13.0391
-11.1118
-8.98325
-6.48772
-3.47139
0.109529
4.20443
8.58704
12.4963
15.3306
17.2713
18.6335
19.6343
20.3808
20.9519
21.3581
21.6466
21.6981
-16.2663
-14.6945
-13.1454
-11.204
-9.05097
-6.52474
-3.49257
0.0937384
4.16711
8.50442
12.4029
15.2725
17.2696
18.7056
19.7779
20.5858
21.2081
21.6477
21.9528
22.0093
-16.4442
-14.8698
-13.3006
-11.3405
-9.15731
-6.58662
-3.52447
0.0746555
4.1209
8.40684
12.2877
15.1704
17.2116
18.7258
19.8839
20.7632
21.4474
21.9287
22.2504
22.3082
-16.6674
-15.0777
-13.4787
-11.5146
-9.30027
-6.67779
-3.57926
0.0345095
4.05014
8.2858
12.1362
15.0218
17.1052
18.6989
19.9503
20.9167
21.6684
22.1936
22.5339
22.5875
-16.9237
-15.3132
-13.7137
-11.7286
-9.46986
-6.79844
-3.66382
-0.0434572
3.94267
8.13477
11.9471
14.8327
16.9602
18.6321
19.9793
21.0403
21.8698
22.4508
22.8082
22.8275
-17.2252
-15.6069
-13.9844
-11.9613
-9.66509
-6.95689
-3.79181
-0.170331
3.79244
7.95126
11.7282
14.6163
16.7863
18.5254
19.9583
21.1227
22.0543
22.7017
23.0578
23.0532
-17.5743
-15.8582
-14.2236
-12.196
-9.88575
-7.15849
-3.97309
-0.349438
3.59912
7.7374
11.4901
14.3837
16.5856
18.3739
19.8827
21.1481
22.1934
22.955
23.368
23.2016
-17.922
-16.1765
-14.5041
-12.4582
-10.1175
-7.38588
-4.19278
-0.570094
3.37071
7.49731
11.2343
14.1292
16.3463
18.1632
19.7244
21.0845
22.2692
23.2004
23.798
23.7996
-18.2705
-16.5586
-14.9034
-12.7594
-10.354
-7.62059
-4.42929
-0.814475
3.11814
7.23333
10.9544
13.8367
16.0449
17.8638
19.4487
20.8621
22.1344
23.2249
23.6914
23.5942
-18.6334
-16.8695
-15.1736
-12.9657
-10.5939
-7.84844
-4.66458
-1.06046
2.86074
6.95973
10.6553
13.5042
15.6783
17.4688
19.0321
20.4285
21.6609
22.5763
22.8826
22.8579
-18.916
-17.0786
-15.3113
-13.1499
-10.8374
-8.06995
-4.89578
-1.30039
2.60486
6.67988
10.3347
13.1279
15.2432
16.9726
18.4618
19.7574
20.8377
21.4194
21.6141
21.71
-19.1584
-17.3994
-15.6979
-13.505
-11.0704
-8.30743
-5.12386
-1.53477
2.35023
6.39144
9.98933
12.7076
14.739
16.3716
17.7324
18.8584
19.736
20.2063
20.3338
20.5194
-19.4676
-17.8794
-16.2199
-13.8716
-11.3184
-8.56902
-5.35271
-1.77088
2.08997
6.08603
9.61477
12.245
14.1677
15.6643
16.8582
17.8005
18.4934
18.8489
18.8898
19.1761
-19.7794
-18.1673
-16.4118
-14.0453
-11.6123
-8.81656
-5.58452
-2.01043
1.82054
5.75919
9.21087
11.7447
13.5356
14.861
15.8654
16.6142
17.0658
17.284
17.356
17.6791
-19.9909
-18.2777
-16.4771
-14.2519
-11.8889
-9.0303
-5.81154
-2.2453
1.54651
5.41637
8.78599
11.2178
12.8614
13.9916
14.7894
15.347
15.5994
15.5709
15.441
15.6468
-20.2125
-18.5607
-16.8422
-14.6048
-12.0969
-9.24661
-6.02115
-2.47212
1.27198
5.06544
8.35027
10.6777
12.1716
13.0983
13.669
14.0182
14.0573
13.4931
12.5442
12.6257
-20.5391
-18.8927
-17.128
-14.8087
-12.2761
-9.45459
-6.20836
-2.69213
0.999819
4.71402
7.91218
10.1359
11.4918
12.2278
12.5506
12.6087
12.4305
11.359
9.12662
7.13661
-20.7956
-19.0494
-17.1696
-14.8797
-12.4519
-9.60907
-6.38032
-2.90191
0.736458
4.37453
7.48553
9.60996
10.8486
11.4275
11.5147
11.2285
10.7235
9.70239
5.89806
-4.18296
-20.9914
-19.2177
-17.3375
-15.0556
-12.6035
-9.7359
-6.54176
-3.09824
0.485315
4.05055
7.06969
9.09576
10.2361
10.7004
10.6116
10.088
9.37089
8.70966
8.10963
4.19538
-21.2418
-19.4949
-17.6137
-15.2615
-12.7396
-9.87853
-6.69782
-3.29246
0.237012
3.73064
6.65503
8.58767
9.65248
10.059
9.9362
9.48972
8.9213
8.91362
9.81058
8.89965
-21.4978
-19.7362
-17.794
-15.3985
-12.8791
-10.0222
-6.85383
-3.49059
-0.0118608
3.41187
6.24812
8.10515
9.12833
9.55229
9.55082
9.33929
9.05936
8.9814
9.4465
8.9712
-21.6962
-19.9346
-17.9702
-15.5572
-13.0329
-10.1634
-7.01903
-3.69464
-0.26431
3.09338
5.85708
7.66739
8.68906
9.19222
9.38289
9.33184
9.15126
8.92977
9.03977
8.98101
-21.9068
-20.1619
-18.1878
-15.7425
-13.1973
-10.3204
-7.19645
-3.90561
-0.521262
2.77712
5.4915
7.29094
8.34945
8.94871
9.26948
9.36052
9.24609
9.01016
9.1225
9.16363
-22.1088
-20.3899
-18.3793
-15.9129
-13.3709
-10.491
-7.38145
-4.12393
-0.781136
2.46903
5.16022
6.98522
8.10368
8.79029
9.19838
9.40671
9.39518
9.24665
9.34908
9.3839
-22.2757
-20.5755
-18.5496
-16.0607
-13.5464
-10.6565
-7.56769
-4.34663
-1.03698
2.178
4.86904
6.74923
7.94163
8.70202
9.18486
9.49378
9.61366
9.55342
9.61156
9.62868
-22.3896
-20.7328
-18.6985
-16.2037
-13.7241
-10.8009
-7.74811
-4.56558
-1.2791
1.91393
4.62064
6.5737
7.85247
8.69078
9.24458
9.64
9.88719
9.91024
9.94431
9.9631
-22.4363
-20.8374
-18.7804
-16.3367
-13.8739
-10.8995
-7.91935
-4.77004
-1.49688
1.68433
4.41702
6.44825
7.8268
8.76082
9.38719
9.85854
10.2396
10.3604
10.4109
10.4411
-22.3934
-20.8798
-18.8143
-16.4352
-13.9257
-10.9606
-8.07322
-4.93862
-1.68214
1.48983
4.25947
6.36794
7.8526
8.9016
9.63031
10.1995
10.6771
10.9653
11.0903
11.137
-22.2247
-20.8067
-18.7595
-16.4074
-13.8677
-11.0535
-8.17097
-5.05681
-1.83706
1.3282
4.14404
6.3273
7.9225
9.10224
9.97095
10.6457
11.2122
11.6408
11.8453
11.8978
-21.9197
-20.6105
-18.5796
-16.2706
-13.7856
-11.0737
-8.2069
-5.13626
-1.96946
1.19659
4.05922
6.31582
8.01841
9.33538
10.3398
11.1182
11.7461
12.2263
12.4863
12.5454
-21.3838
-20.2055
-18.2516
-16.0337
-13.6394
-11.006
-8.19271
-5.18819
-2.07804
1.08212
3.98111
6.3025
8.09383
9.52151
10.6298
11.4523
12.0814
12.5564
12.8424
12.9164
-20.6645
-19.6549
-17.7962
-15.6913
-13.4007
-10.8621
-8.13188
-5.20948
-2.16109
0.970567
3.88097
6.24189
8.08213
9.54792
10.6645
11.4682
12.0794
12.5599
12.8732
12.9624
-19.6703
-18.8633
-17.1957
-15.2602
-13.0921
-10.6669
-8.03199
-5.20042
-2.22939
0.843769
3.72493
6.07376
7.88479
9.29602
10.367
11.1631
11.7786
12.2623
12.5833
12.6909
-18.5595
-18.0095
-16.5371
-14.7576
-12.7208
-10.414
-7.88649
-5.16255
-2.29461
0.681264
3.47406
5.73259
7.44884
8.79738
9.85614
10.6639
11.2832
11.7566
12.0789
12.2032
-17.4373
-17.156
-15.9179
-14.2735
-12.3309
-10.1209
-7.70183
-5.10358
-2.37059
0.461966
3.10641
5.23596
6.87323
8.19369
9.24629
10.0445
10.6521
11.115
11.4411
11.5876
-16.6928
-16.5894
-15.3932
-13.7743
-11.8806
-9.7649
-7.47429
-5.02545
-2.45912
0.191734
2.66253
4.67354
6.23897
7.49494
8.47774
9.22458
9.80659
10.2593
10.5909
10.768
-16.2678
-16.1627
-15.0219
-13.3507
-11.4316
-9.3733
-7.19684
-4.90928
-2.53701
-0.0888807
2.20458
4.07164
5.50022
6.61758
7.47756
8.13491
8.6462
9.04282
9.34027
9.52044
-15.3487
-15.2626
-14.2462
-12.6456
-10.8027
-8.83603
-6.81278
-4.72154
-2.55921
-0.31312
1.80367
3.50332
4.7699
5.74555
6.49309
7.04645
7.45277
7.74718
7.95017
8.07005
-13.6799
-13.6961
-12.7986
-11.3237
-9.68649
-7.98662
-6.24123
-4.40802
-2.4796
-0.457953
1.44986
2.96491
4.07936
4.92969
5.5833
6.04442
6.36285
6.57381
6.69957
6.76298
-11.0286
-11.1262
-10.6055
-9.46992
-8.24718
-6.90354
-5.47682
-3.94513
-2.29732
-0.552843
1.09693
2.39806
3.34572
4.05753
4.59203
4.95156
5.186
5.33374
5.41653
5.45186
-7.89842
-7.92378
-7.71382
-7.2401
-6.53933
-5.60395
-4.54468
-3.34857
-2.02188
-0.587473
0.787543
1.877
2.66235
3.23617
3.65387
3.92819
4.10172
4.20806
4.26726
4.29584
-4.92016
-4.93164
-4.89336
-4.79095
-4.56262
-4.12276
-3.48032
-2.64104
-1.65151
-0.538857
0.558113
1.44616
2.07945
2.52426
2.84483
3.05833
3.19406
3.27897
3.33152
3.36012
-2.59457
-2.6166
-2.64965
-2.70954
-2.7239
-2.62556
-2.37374
-1.87093
-1.21417
-0.413104
0.421406
1.12168
1.6188
1.9549
2.20164
2.37261
2.48796
2.56701
2.61737
2.64895
-1.1996
-1.21971
-1.26047
-1.32652
-1.3763
-1.39862
-1.36518
-1.1467
-0.774276
-0.235768
0.372505
0.90429
1.28857
1.54492
1.74222
1.88201
1.98136
2.05396
2.09553
2.11664
-0.448047
-0.476278
-0.542397
-0.602562
-0.623859
-0.638303
-0.645079
-0.56468
-0.38403
-0.0358623
0.389735
0.7792
1.07731
1.2796
1.44305
1.55692
1.63908
1.70095
1.73116
1.74326
-0.0840812
-0.112529
-0.188944
-0.261573
-0.284178
-0.28265
-0.259773
-0.193737
-0.0929615
0.14383
0.437469
0.719862
0.953592
1.11626
1.25297
1.3437
1.40404
1.44877
1.46794
1.47495
0.071705
0.051344
-0.0146473
-0.0928433
-0.129504
-0.133473
-0.0983545
-0.0178481
0.0687088
0.260904
0.481237
0.695322
0.882684
1.00811
1.12031
1.19167
1.22388
1.24813
1.25825
1.26211
0.122697
0.110166
0.0648727
0.00732301
-0.0295034
-0.0516877
-0.0360454
0.0326994
0.126908
0.309682
0.500708
0.674746
0.828737
0.916015
0.998887
1.05388
1.0599
1.06888
1.06952
1.07128
0.147271
0.139252
0.111542
0.0761747
0.0471937
0.00983737
0.000335119
0.0472598
0.139871
0.313666
0.485181
0.626229
0.756619
0.812062
0.85635
0.888814
0.89352
0.898281
0.89265
0.893539
0.180499
0.175873
0.155527
0.131377
0.114066
0.0769628
0.0574397
0.085161
0.156552
0.291683
0.43444
0.536019
0.648741
0.686562
0.698098
0.716376
0.723543
0.731365
0.728207
0.729538
0.212353
0.211062
0.19814
0.182711
0.180321
0.161887
0.150129
0.159111
0.183521
0.260641
0.367975
0.433631
0.517301
0.549951
0.554502
0.56863
0.573816
0.581255
0.580462
0.582259
0.237063
0.236931
0.231538
0.226934
0.233949
0.234271
0.239277
0.239159
0.219869
0.248726
0.315273
0.357457
0.400956
0.426812
0.444775
0.459008
0.459578
0.462835
0.46003
0.460817
0.262762
0.261709
0.256931
0.254619
0.259986
0.259744
0.268785
0.274751
0.258019
0.268473
0.294696
0.312385
0.332421
0.351701
0.368556
0.378351
0.375778
0.375744
0.369978
0.369345
0.286777
0.283692
0.273878
0.264035
0.257981
0.244195
0.244817
0.256695
0.263272
0.282533
0.287475
0.293979
0.304684
0.316703
0.319314
0.320123
0.312942
0.309341
0.300612
0.298359
0.288471
0.284909
0.27198
0.256436
0.242651
0.221109
0.213374
0.217818
0.229556
0.25829
0.265922
0.277716
0.283706
0.28473
0.277584
0.273294
0.261634
0.25467
0.243801
0.240522
0.262715
0.259739
0.249025
0.236641
0.225639
0.20901
0.19878
0.192197
0.19072
0.211326
0.225534
0.243097
0.244121
0.241563
0.231139
0.22647
0.213842
0.207301
0.196772
0.19333
0.226247
0.224236
0.218033
0.212631
0.207486
0.199632
0.191979
0.181833
0.170156
0.175151
0.183018
0.195444
0.193353
0.193662
0.182229
0.180107
0.168697
0.164744
0.156509
0.1535
0.195619
0.193874
0.190187
0.187901
0.184147
0.181285
0.176448
0.171572
0.159596
0.156291
0.150546
0.156644
0.148876
0.15008
0.14046
0.140595
0.130355
0.129014
0.122518
0.119645
0.168764
0.16687
0.163397
0.160723
0.155139
0.152785
0.14639
0.149162
0.139096
0.141049
0.126626
0.127585
0.118622
0.118874
0.110168
0.109909
0.100292
0.0983434
0.0931944
0.0905036
0.136749
0.134732
0.131437
0.128782
0.121805
0.119829
0.110708
0.114625
0.103711
0.115736
0.102219
0.102592
0.094261
0.0945187
0.0846909
0.084329
0.0756011
0.0734855
0.0689062
0.0659839
0.0981412
0.0956956
0.093429
0.0921782
0.0855314
0.0867196
0.0753184
0.081004
0.0676728
0.0819224
0.0723375
0.0767474
0.0679813
0.0703159
0.060146
0.0609572
0.0528801
0.0510872
0.0477358
0.0450452
0.0577234
0.0555529
0.0556605
0.0566226
0.0494659
0.0530759
0.0421496
0.0514879
0.0363371
0.0491099
0.0381066
0.047508
0.0379168
0.0433603
0.0339034
0.0373018
0.030866
0.0308586
0.029403
0.0269933
0.0222273
0.0211737
0.0228037
0.0223546
0.0144993
0.0213836
0.0100203
0.0203824
0.00710462
0.0179193
0.0071653
0.0167543
0.00798347
0.0154671
0.00801529
0.0131561
0.0088118
0.00955278
0.0101519
0.00826278
12.6745
16.9389
18.0344
19.419
20.5464
21.5486
22.4223
23.1508
23.6407
23.7416
17.3098
19.3864
20.0785
20.9567
21.7179
22.3695
22.9085
23.3167
23.537
23.5329
19.8035
20.832
21.3577
21.901
22.3795
22.7865
23.1095
23.341
23.4631
23.4823
21.1805
21.8182
22.1569
22.4999
22.789
23.0303
23.2174
23.3476
23.4222
23.4506
22.09
22.42
22.6313
22.8401
23.0193
23.1686
23.2827
23.3621
23.407
23.4358
22.5896
22.8129
22.9333
23.0683
23.175
23.2625
23.3322
23.3834
23.4147
23.4393
22.9177
23.0627
23.1214
23.2066
23.2746
23.3321
23.3787
23.4153
23.4384
23.463
23.131
23.2192
23.2595
23.3121
23.3588
23.3991
23.4337
23.4622
23.4834
23.5038
23.2853
23.3416
23.3724
23.4049
23.4391
23.4693
23.4947
23.5174
23.5336
23.5537
23.4121
23.448
23.474
23.4975
23.5199
23.5413
23.5593
23.5764
23.5895
23.6072
23.5265
23.5494
23.5674
23.5825
23.5976
23.6121
23.6257
23.6401
23.6501
23.6679
23.6246
23.6377
23.6535
23.6668
23.6798
23.692
23.7027
23.7127
23.7184
23.7301
23.719
23.7302
23.745
23.7565
23.7656
23.7736
23.7812
23.788
23.7886
23.7966
23.8199
23.8256
23.835
23.8406
23.8442
23.8487
23.8543
23.8609
23.8647
23.8741
23.9346
23.9212
23.9136
23.9079
23.9053
23.907
23.9139
23.927
23.9416
23.9703
24.0564
24.0009
23.97
23.9524
23.9441
23.9441
23.9529
23.9723
24.0039
24.0738
)
;

boundaryField
{
    wall-4
    {
        type            zeroGradient;
    }
    pressure-outlet-7
    {
        type            fixedValue;
        value           uniform 0;
    }
    velocity-inlet-6
    {
        type            zeroGradient;
    }
    velocity-inlet-5
    {
        type            zeroGradient;
    }
    frontAndBackPlanes
    {
        type            empty;
    }
}


// ************************************************************************* //
