/*--------------------------------*- C++ -*----------------------------------*\
| =========                 |                                                 |
| \\      /  F ield         | OpenFOAM: The Open Source CFD Toolbox           |
|  \\    /   O peration     | Version:  2412                                  |
|   \\  /    A nd           | Website:  www.openfoam.com                      |
|    \\/     M anipulation  |                                                 |
\*---------------------------------------------------------------------------*/
FoamFile
{
    version     2.0;
    format      ascii;
    arch        "LSB;label=32;scalar=64";
    class       surfaceScalarField;
    location    "6";
    object      phi;
}
// * * * * * * * * * * * * * * * * * * * * * * * * * * * * * * * * * * * * * //

dimensions      [0 3 -1 0 0 0 0];

oriented        oriented;

internalField   nonuniform List<scalar> 
4262
(
0.000459022
0.220054
-0.00111515
0.830227
-0.00267
1.7687
-0.00424455
3.16674
-0.00632549
5.18668
-0.00811468
8.01615
-0.00968204
11.8487
-0.0112235
16.8213
-0.0127909
22.8834
-0.0119086
29.5275
-0.0104623
29.5269
-0.00909154
22.8805
-0.00799098
16.8186
-0.00680306
11.846
-0.00580894
8.01337
-0.00482411
5.18362
-0.00378117
3.16412
-0.0036464
1.76701
-0.00328387
0.828291
0.217229
-0.00231365
0.222367
-0.00433566
0.832249
-0.00788036
1.77224
-0.0120687
3.17093
-0.0184622
5.19308
-0.025068
8.02276
-0.0292143
11.8529
-0.0338986
16.826
-0.0377223
22.8872
-0.036431
29.5262
-0.0332811
29.5238
-0.0287213
22.8759
-0.0245094
16.8144
-0.0190294
11.8405
-0.0149541
8.0093
-0.0119536
5.18062
-0.00869454
3.16086
-0.00623304
1.76455
-0.00240989
0.824468
0.214819
-0.00604814
0.228415
-0.00965666
0.835858
-0.0161489
1.77873
-0.0247483
3.17953
-0.0327778
5.20111
-0.0389911
8.02897
-0.0474544
11.8613
-0.0535036
16.832
-0.0600926
22.8938
-0.0576532
29.5237
-0.05198
29.5181
-0.0443987
22.8683
-0.0365742
16.8066
-0.0299676
11.8339
-0.0222196
8.00155
-0.0160298
5.17443
-0.0108792
3.15571
-0.00467705
1.75834
0.00101949
0.818771
0.215838
-0.0110117
0.239427
-0.0183054
0.843151
-0.0284975
1.78893
-0.0400438
3.19108
-0.0501448
5.21121
-0.0582108
8.03704
-0.0690764
11.8722
-0.0756002
16.8385
-0.0835413
22.9017
-0.0787632
29.519
-0.0709311
29.5103
-0.0622269
22.8596
-0.0483919
16.7928
-0.0370771
11.8226
-0.0262751
7.99075
-0.0183862
5.16654
-0.0113919
3.14872
-0.00489631
1.75185
0.00230902
0.811566
0.218147
-0.0152732
0.2547
-0.025127
0.853005
-0.0397755
1.80358
-0.0552767
3.20658
-0.0692633
5.2252
-0.0792464
8.04702
-0.0888655
11.8818
-0.0943952
16.8441
-0.103529
22.9109
-0.0992137
29.5146
-0.0898514
29.5009
-0.0752518
22.845
-0.056199
16.7737
-0.0404007
11.8068
-0.0262896
7.97663
-0.0162274
5.15648
-0.00874983
3.14124
-0.00351261
1.74661
0.0034217
0.804631
0.221569
-0.0160447
0.270745
-0.0318489
0.868809
-0.0526075
1.82433
-0.0736413
3.22761
-0.0931926
5.24475
-0.10605
8.05988
-0.113987
11.8897
-0.122475
16.8526
-0.129186
22.9176
-0.119573
29.505
-0.104997
29.4863
-0.0852711
22.8253
-0.0635977
16.752
-0.0409083
11.7841
-0.0237976
7.95952
-0.011352
5.14403
-0.00282354
3.13271
0.00231116
1.74148
0.00437135
0.802571
0.225941
-0.0175885
0.288333
-0.0450959
0.896317
-0.0664944
1.84573
-0.0850784
3.24619
-0.107927
5.26759
-0.130841
8.08279
-0.139275
11.8982
-0.147602
16.8609
-0.153618
22.9236
-0.140651
29.4921
-0.122206
29.4679
-0.0940379
22.7971
-0.0680565
16.7261
-0.0422461
11.7583
-0.0249459
7.94222
-0.0117268
5.13081
0.000272447
3.12071
0.00767423
1.73408
0.00324731
0.806998
0.229188
-0.0228948
0.311228
-0.0612579
0.93468
-0.0771894
1.86166
-0.0942438
3.26325
-0.118071
5.29142
-0.142325
8.10705
-0.16275
11.9186
-0.178586
16.8767
-0.182583
22.9276
-0.162206
29.4717
-0.135186
29.4408
-0.102905
22.7648
-0.0754485
16.6986
-0.0485728
11.7314
-0.0292423
7.92289
-0.0105214
5.11209
0.00647275
3.10372
0.0197796
1.72077
0.00615229
0.820626
0.23534
-0.0291525
0.340381
-0.0727508
0.978278
-0.0856486
1.87456
-0.106137
3.28374
-0.127973
5.31326
-0.156289
8.13536
-0.182411
11.9447
-0.204191
16.8985
-0.213185
22.9366
-0.187844
29.4464
-0.152742
29.4057
-0.116287
22.7284
-0.0895514
16.6719
-0.0620869
11.7039
-0.0355905
7.8964
-0.0116846
5.08819
0.0079616
3.08407
0.0312772
1.69745
0.0112898
0.840613
0.24663
-0.0327901
0.373171
-0.0818848
1.02737
-0.0957333
1.88841
-0.120791
3.30879
-0.14419
5.33666
-0.169929
8.1611
-0.200682
11.9755
-0.225742
16.9236
-0.24284
22.9537
-0.214515
29.418
-0.174928
29.3662
-0.140389
22.6938
-0.108961
16.6404
-0.0777787
11.6727
-0.0460061
7.86462
-0.0173582
5.05954
0.00426277
3.06245
0.0311045
1.67061
0.0117704
0.859947
0.2584
-0.0342779
0.407449
-0.0853263
1.07842
-0.104973
1.90806
-0.14044
3.34426
-0.167077
5.36329
-0.196152
8.19018
-0.225399
12.0047
-0.246537
16.9447
-0.270355
22.9775
-0.247252
29.3949
-0.209665
29.3286
-0.170658
22.6548
-0.127787
16.5976
-0.086356
11.6313
-0.0497067
7.82798
-0.0180375
5.02787
0.00271181
3.0417
0.0268634
1.64646
0.00931233
0.877498
0.267713
-0.0346402
0.442089
-0.0885405
1.13232
-0.118268
1.93778
-0.161321
3.38732
-0.196285
5.39826
-0.229891
8.22378
-0.256658
12.0315
-0.280089
16.9681
-0.301381
22.9988
-0.279522
29.3731
-0.24291
29.292
-0.195402
22.6073
-0.141658
16.5438
-0.0902124
11.5799
-0.0510877
7.78885
-0.0172341
4.99402
0.00521506
3.01925
0.0239792
1.6277
0.00762505
0.893852
0.275338
-0.0380512
0.48014
-0.0976579
1.19193
-0.136337
1.97646
-0.177391
3.42837
-0.221993
5.44286
-0.269673
8.27146
-0.303191
12.065
-0.32594
16.9909
-0.342446
23.0153
-0.320145
29.3508
-0.280811
29.2526
-0.217629
22.5441
-0.148213
16.4744
-0.086205
11.5178
-0.0440843
7.74673
-0.0165059
4.96644
0.011119
2.99163
0.0240914
1.61472
0.007068
0.910876
0.282406
-0.0426564
0.522797
-0.106358
1.25563
-0.161911
2.03202
-0.20892
3.47538
-0.274564
5.5085
-0.328494
8.32539
-0.365968
12.1025
-0.390034
17.0149
-0.400205
23.0255
-0.364221
29.3148
-0.306019
29.1944
-0.220931
22.4591
-0.140885
16.3944
-0.0794995
11.4565
-0.034432
7.70166
-0.00602207
4.93803
0.0325182
2.95309
0.0347726
1.61247
0.0112794
0.934369
0.293685
-0.0584335
0.58123
-0.142536
1.33973
-0.214142
2.10362
-0.259428
3.52066
-0.325516
5.57459
-0.384884
8.38476
-0.439762
12.1574
-0.473982
17.0492
-0.477394
23.0289
-0.418177
29.2556
-0.330055
29.1063
-0.230248
22.3592
-0.140415
16.3045
-0.0683501
11.3844
-0.00985866
7.64317
0.0191734
4.90899
0.0565627
2.9157
0.0456259
1.62341
0.0152926
0.964702
0.308978
-0.0622267
0.643457
-0.153677
1.43118
-0.246344
2.19629
-0.317118
3.59144
-0.40047
5.65794
-0.461787
8.44608
-0.521168
12.2167
-0.562029
17.09
-0.566082
23.0329
-0.480854
29.1703
-0.357193
28.9826
-0.239939
22.242
-0.142299
16.2069
-0.0634728
11.3056
0.0032532
7.57644
0.0454391
4.86681
0.0844525
2.87669
0.0623765
1.64548
0.0212406
1.00584
0.330218
-0.0831088
0.726565
-0.195215
1.54329
-0.299701
2.30078
-0.375828
3.66756
-0.46313
5.74525
-0.531898
8.51484
-0.599966
12.2848
-0.649731
17.1398
-0.65547
23.0387
-0.556357
29.0712
-0.424152
28.8504
-0.290868
22.1087
-0.172145
16.0882
-0.070906
11.2043
0.00941363
7.49613
0.0588335
4.81739
0.0880648
2.84746
0.0599869
1.67356
0.0190709
1.04675
0.349289
-0.079496
0.806061
-0.197072
1.66086
-0.322772
2.42648
-0.423583
3.76837
-0.52325
5.84491
-0.612202
8.6038
-0.691717
12.3643
-0.749346
17.1974
-0.755492
23.0448
-0.64795
28.9637
-0.500322
28.7028
-0.345979
21.9544
-0.202104
15.9443
-0.0861866
11.0884
-0.000452832
7.41039
0.0684201
4.74852
0.0999213
2.81595
0.0677401
1.70574
0.0209026
1.09359
0.370192
-0.101722
0.907784
-0.234638
1.79378
-0.367949
2.55979
-0.47843
3.87886
-0.589285
5.95577
-0.698027
8.71254
-0.785433
12.4517
-0.860771
17.2728
-0.865412
23.0495
-0.751755
28.85
-0.594743
28.5458
-0.418458
21.7781
-0.24926
15.7751
-0.106473
10.9456
-0.00513202
7.30905
0.0747411
4.66864
0.10049
2.79021
0.0631009
1.74313
0.0162348
1.14046
0.386427
-0.104379
1.01216
-0.252565
1.94197
-0.412082
2.71931
-0.553429
4.0202
-0.679011
6.08135
-0.811665
8.84519
-0.916633
12.5567
-1.00556
17.3617
-1.00768
23.0516
-0.883625
28.726
-0.695493
28.3577
-0.474788
21.5574
-0.269707
15.57
-0.111819
10.7877
-0.00573548
7.20297
0.0850652
4.57784
0.10197
2.7733
0.0611785
1.78392
0.0123373
1.1893
0.398764
-0.126815
1.13898
-0.290065
2.10522
-0.466757
2.896
-0.629139
4.18258
-0.785224
6.23744
-0.952937
9.01291
-1.0854
12.6892
-1.19607
17.4724
-1.18365
23.0392
-1.03188
28.5742
-0.797741
28.1235
-0.539093
21.2987
-0.310977
15.3419
-0.117897
10.5947
0.00935547
7.07571
0.102858
4.48434
0.110715
2.76544
0.0556044
1.83903
0.000126684
1.24478
0.398891
-0.140982
1.27996
-0.330481
2.29471
-0.535889
3.10141
-0.743192
4.38989
-0.940846
6.43509
-1.14469
9.21675
-1.309
12.8535
-1.44299
17.6063
-1.41016
23.0063
-1.2066
28.3706
-0.911517
27.8284
-0.605713
20.9929
-0.331184
15.0674
-0.123931
10.3874
0.01059
6.94119
0.100694
4.39424
0.0983577
2.76778
0.0485657
1.88882
-0.0121244
1.30547
0.386766
-0.162854
1.44281
-0.374257
2.50612
-0.614847
3.342
-0.857655
4.63269
-1.10556
6.68299
-1.35759
9.46879
-1.56196
13.0578
-1.70781
17.7522
-1.65258
22.9511
-1.40584
28.1239
-1.05714
27.4797
-0.712397
20.6482
-0.403819
14.7588
-0.165684
10.1493
0.00620111
6.76931
0.100775
4.29966
0.0909051
2.77765
0.0159276
1.9638
-0.0305841
1.35198
0.356182
-0.196829
1.63964
-0.438236
2.74752
-0.712626
3.61639
-1.02391
4.94397
-1.3352
6.99428
-1.62715
9.76074
-1.857
13.2877
-2.01058
17.9058
-1.92037
22.8609
-1.64062
27.8441
-1.25505
27.0942
-0.853575
20.2467
-0.483613
14.3888
-0.213238
9.8789
-0.019482
6.57555
0.0626636
4.21752
0.0411185
2.7992
-0.0221768
2.0271
-0.058297
1.3881
0.297885
-0.253113
1.89276
-0.531623
3.02603
-0.901321
3.98609
-1.28132
5.32397
-1.634
7.34696
-1.95051
10.0772
-2.21152
13.5487
-2.35198
18.0462
-2.22762
22.7365
-1.91803
27.5346
-1.46455
26.6407
-0.989388
19.7715
-0.581644
13.9811
-0.273517
9.57077
-0.0429684
6.345
0.0474703
4.12708
0.027274
2.81939
-0.0408757
2.09525
-0.0942073
1.44143
0.203678
-0.382092
2.27485
-0.794476
3.43842
-1.21526
4.40687
-1.62177
5.73048
-2.02215
7.74735
-2.37981
10.4349
-2.6887
13.8576
-2.78743
18.145
-2.60606
22.5552
-2.22111
27.1496
-1.66516
26.0847
-1.12123
19.2276
-0.665079
13.5249
-0.307051
9.21274
-0.068105
6.10606
-0.00615268
4.06513
-0.0477308
2.86097
-0.121664
2.16918
-0.12347
1.44324
0.0802075
-0.312101
2.58695
-0.683938
3.81026
-1.0407
4.76363
-1.44017
6.12995
-1.86353
8.17071
-2.28049
10.8519
-2.68217
14.2593
-2.84037
18.3032
-2.73764
22.4524
-2.36698
26.7789
-1.71116
25.4289
-1.0581
18.5746
-0.530521
12.9974
-0.0791478
8.76137
0.171331
5.85558
0.196569
4.03989
0.105098
2.95244
-0.00119649
2.27547
-0.0475871
1.48963
0.0326204
-0.190923
2.77787
-0.438019
4.05735
-0.74861
5.07422
-1.08586
6.46721
-1.41334
8.49818
-1.70974
11.1483
-1.97317
14.5227
-2.01026
18.3403
-1.83659
22.2788
-1.39927
26.3416
-0.732865
24.7625
-0.188444
18.0301
0.293079
12.5158
0.602976
8.45147
0.67653
5.78203
0.600731
4.11569
0.41773
3.13544
0.208486
2.48472
0.0841713
1.61394
0.116792
-0.156883
2.93475
-0.337504
4.23797
-0.577826
5.31454
-0.834499
6.72388
-1.08149
8.74517
-1.2952
11.362
-1.44828
14.6758
-1.40504
18.297
-1.19237
22.0661
-0.730759
25.88
-0.0849266
24.1167
0.422223
17.523
0.802331
12.1357
0.937995
8.31581
0.863275
5.85675
0.6406
4.33836
0.400526
3.37552
0.241307
2.64394
0.123376
1.73187
0.240168
-0.131217
3.06597
-0.296501
4.40326
-0.491176
5.50922
-0.683137
6.91584
-0.854839
8.91688
-1.01195
11.5191
-1.08883
14.7527
-0.99662
18.2048
-0.754719
21.8242
-0.294278
25.4196
0.315822
23.5066
0.772487
17.0663
1.06279
11.8454
1.11558
8.26302
1.01108
5.96124
0.797068
4.55237
0.545281
3.6273
0.320302
2.86892
0.146608
1.90557
0.386775
-0.103372
3.16934
-0.265028
4.56491
-0.414484
5.65867
-0.562991
7.06435
-0.699903
9.05379
-0.823715
11.6429
-0.85131
14.7803
-0.73604
18.0895
-0.480156
21.5683
-0.0275631
24.967
0.515028
22.964
0.919353
16.662
1.12745
11.6373
1.08254
8.30793
0.851341
6.19244
0.594404
4.80931
0.373671
3.84804
0.22377
3.01882
0.116015
2.01332
0.50279
-0.0846285
3.25397
-0.250255
4.73054
-0.395255
5.80367
-0.508804
7.1779
-0.612367
9.15735
-0.702523
11.7331
-0.69692
14.7746
-0.57464
17.9673
-0.330936
21.3246
0.0854315
24.5506
0.587256
22.4622
0.954589
16.2947
1.08488
11.507
1.0005
8.3923
0.831617
6.36133
0.649082
4.99184
0.473348
4.02377
0.290623
3.20154
0.13392
2.17003
0.63671
-0.0577301
3.3117
-0.207144
4.87995
-0.356597
5.95312
-0.475349
7.29665
-0.570851
9.25285
-0.627464
11.7897
-0.597468
14.7447
-0.48034
17.8501
-0.260402
21.1047
0.119019
24.1712
0.572193
22.009
0.877734
15.9891
0.94598
11.4388
0.848798
8.48948
0.653269
6.55686
0.446588
5.19853
0.278099
4.19226
0.175112
3.30453
0.0814892
2.26365
0.718199
-0.0558519
3.36755
-0.192398
5.0165
-0.32806
6.08879
-0.453461
7.42205
-0.539718
9.33911
-0.579794
11.8297
-0.534042
14.6989
-0.430987
17.7471
-0.235366
20.9091
0.107107
23.8287
0.511341
21.6047
0.776155
15.7243
0.819604
11.3953
0.706675
8.60241
0.545524
6.71801
0.390703
5.35335
0.256684
4.32628
0.112856
3.44836
0.0326103
2.34389
0.750809
-0.039712
3.40727
-0.14432
5.12111
-0.270355
6.21482
-0.410698
7.56239
-0.50725
9.43566
-0.544662
11.8672
-0.499449
14.6537
-0.411051
17.6587
-0.236297
20.7343
0.0693215
23.5231
0.425168
21.2489
0.634536
15.5149
0.636571
11.3933
0.540735
8.69825
0.414086
6.84466
0.270275
5.49716
0.157436
4.43912
0.0779661
3.52783
0.0162991
2.40556
0.767109
-0.0330442
3.44031
-0.140433
5.2285
-0.250402
6.32479
-0.37703
7.68902
-0.471417
9.53005
-0.513536
11.9093
-0.482301
14.6225
-0.406966
17.5833
-0.249614
20.577
0.0208097
23.2527
0.325175
20.9445
0.488812
15.3513
0.487983
11.3941
0.39436
8.79187
0.280663
6.95835
0.169406
5.60841
0.0884193
4.5201
0.0234628
3.59278
-0.00534187
2.43437
0.761767
-0.0291271
3.46944
-0.107879
5.30725
-0.213323
6.43024
-0.333925
7.80962
-0.436009
9.63213
-0.485178
11.9584
-0.471841
14.6091
-0.407347
17.5189
-0.267015
20.4366
-0.0313069
23.017
0.218209
20.695
0.337585
15.2319
0.318381
11.4133
0.242747
8.86751
0.177522
7.02358
0.108044
5.67789
0.0464443
4.5817
0.00489277
3.63434
-0.0138003
2.45306
0.747966
-0.0206432
3.49008
-0.108823
5.39543
-0.210128
6.53154
-0.313781
7.91328
-0.407023
9.72537
-0.458676
12.0101
-0.458477
14.6089
-0.404257
17.4646
-0.281803
20.3142
-0.0805682
22.8157
0.113289
20.5012
0.193472
15.1517
0.173543
11.4333
0.121034
8.92002
0.0544337
7.09018
0.00845494
5.72387
-0.0196018
4.60976
-0.0405024
3.65524
-0.0318581
2.44441
0.716108
-0.0202671
3.51035
-0.0996228
5.47478
-0.192541
6.62446
-0.289603
8.01034
-0.380498
9.81627
-0.430478
12.0601
-0.439383
14.6178
-0.396129
17.4214
-0.292211
20.2102
-0.126755
22.6503
0.0122918
20.3621
0.059308
15.1047
0.0322037
11.4604
0.000253044
8.95197
-0.0202758
7.11071
-0.0340467
5.73764
-0.0627656
4.63848
-0.0652806
3.65775
-0.0430245
2.42216
0.673084
-0.015738
3.52608
-0.100806
5.55985
-0.192418
6.71607
-0.278849
8.09677
-0.355623
9.89304
-0.402618
12.1071
-0.416379
14.6316
-0.382779
17.3878
-0.298308
20.1258
-0.167722
22.5197
-0.0645005
20.2589
-0.0484412
15.0887
-0.0758601
11.4878
-0.103506
8.97961
-0.126998
7.1342
-0.133442
5.74409
-0.115811
4.62085
-0.0991316
3.64107
-0.0592016
2.38223
0.613882
-0.027853
3.55394
-0.101703
5.6337
-0.176894
6.79126
-0.257004
8.17688
-0.331222
9.96726
-0.375735
12.1516
-0.392458
14.6483
-0.366949
17.3623
-0.301519
20.0603
-0.203717
22.4219
-0.136424
20.1916
-0.145791
15.098
-0.18259
11.5246
-0.20423
9.00125
-0.199257
7.12923
-0.183936
5.72876
-0.170847
4.60776
-0.133323
3.60355
-0.0730991
2.322
0.540783
-0.0228283
3.57677
-0.10052
5.71139
-0.170951
6.86169
-0.246726
8.25265
-0.310566
10.0311
-0.352088
12.1931
-0.369401
14.6656
-0.350613
17.3435
-0.301811
20.0115
-0.231884
22.352
-0.193957
20.1537
-0.21925
15.1233
-0.265632
11.571
-0.289934
9.02555
-0.294885
7.13418
-0.280115
5.71399
-0.234232
4.56188
-0.180351
3.54967
-0.0981906
2.23984
0.442593
-0.0257792
3.60255
-0.0930633
5.77868
-0.156017
6.92465
-0.228307
8.32494
-0.290205
10.093
-0.330622
12.2335
-0.347642
14.6826
-0.334544
17.3304
-0.299536
19.9765
-0.251839
22.3043
-0.239609
20.1414
-0.281282
15.165
-0.345257
11.6349
-0.374096
9.05439
-0.365333
7.12542
-0.335489
5.68415
-0.296172
4.52256
-0.215551
3.46905
-0.117115
2.14141
0.325477
-0.0246987
3.62724
-0.0876047
5.84158
-0.145849
6.98289
-0.216257
8.39535
-0.272291
10.149
-0.311029
12.2723
-0.326652
14.6983
-0.318425
17.3222
-0.294325
19.9524
-0.264218
22.2742
-0.273387
20.1506
-0.327849
15.2195
-0.390149
11.6972
-0.442188
9.10643
-0.456693
7.13992
-0.432597
5.66005
-0.367331
4.45729
-0.274553
3.37627
-0.133056
1.99991
0.192421
-0.0215911
3.64883
-0.0789006
5.89889
-0.132853
7.03684
-0.198177
8.46067
-0.254377
10.2052
-0.290877
12.3088
-0.306431
14.7138
-0.302568
17.3183
-0.286975
19.9368
-0.271013
22.2582
-0.2985
20.1781
-0.367376
15.2883
-0.441398
11.7713
-0.495281
9.16032
-0.517122
7.16176
-0.490863
5.6338
-0.439192
4.40562
-0.312981
3.25006
-0.13274
1.81967
0.0596817
-0.0196795
3.66851
-0.0717721
5.95099
-0.124667
7.08974
-0.188102
8.52411
-0.237173
10.2543
-0.272543
12.3441
-0.289167
14.7304
-0.289315
17.3184
-0.280422
19.9279
-0.276153
22.2539
-0.318501
20.2205
-0.397614
15.3675
-0.477139
11.8508
-0.539092
9.22227
-0.587724
7.21039
-0.588441
5.63451
-0.513397
4.33058
-0.354427
3.09109
-0.0174513
1.48269
0.0422303
-0.0234224
3.69194
-0.0612152
5.98878
-0.112758
7.14128
-0.174019
8.58537
-0.224924
10.3052
-0.264409
12.3836
-0.286289
14.7523
-0.293254
17.3254
-0.292587
19.9273
-0.301388
22.2627
-0.362684
20.2817
-0.462737
15.4675
-0.567336
11.9554
-0.651374
9.30631
-0.697017
7.25604
-0.709023
5.64652
-0.652679
4.27423
-0.426397
2.86481
-0.241079
1.29738
0.583705
-0.782553
-0.0251269
3.71706
-0.0642409
6.02789
-0.112786
7.18983
-0.162121
8.63471
-0.211319
10.3544
-0.250209
12.4225
-0.275543
14.7777
-0.287638
17.3375
-0.293838
19.9335
-0.314163
22.283
-0.390563
20.3581
-0.506115
15.5831
-0.626865
12.0761
-0.735225
9.41467
-0.827685
7.3485
-0.901763
5.7206
-0.940443
4.31291
-0.783289
2.70765
-0.926169
1.44026
1.14756
-1.49002
-0.0199873
3.73705
-0.049824
6.05773
-0.0997269
7.23973
-0.147036
8.68202
-0.198779
10.4062
-0.23583
12.4596
-0.265053
14.8069
-0.281989
17.3544
-0.294985
19.9465
-0.325856
22.3139
-0.416046
20.4483
-0.548969
15.716
-0.696741
12.2239
-0.841818
9.55974
-0.974738
7.48142
-1.07409
5.81995
-1.05022
4.28904
-0.957227
2.61466
-1.31539
1.79842
1.568
-1.73583
-0.0209285
3.75798
-0.0486331
6.08543
-0.0991968
7.29029
-0.140868
8.72369
-0.185469
10.4508
-0.222399
12.4965
-0.253713
14.8382
-0.274847
17.3756
-0.294058
19.9657
-0.334545
22.3544
-0.436893
20.5507
-0.584912
15.864
-0.753429
12.3924
-0.931087
9.7374
-1.12678
7.67711
-1.28216
5.97533
-1.23534
4.24222
-1.35539
2.73471
-1.68849
2.13152
1.83285
-1.95333
-0.0221444
3.78012
-0.0473877
6.11068
-0.0885266
7.33143
-0.12699
8.76215
-0.168916
10.4927
-0.211111
12.5387
-0.242706
14.8698
-0.267631
17.4005
-0.292052
19.9901
-0.341133
22.4035
-0.454341
20.6639
-0.61706
16.0267
-0.814208
12.5896
-1.03211
9.95531
-1.22573
7.87073
-1.31351
6.0631
-1.28126
4.20998
-1.52812
2.98157
-1.86374
2.46713
2.05373
-2.08462
-0.0142747
3.7944
-0.0459201
6.14232
-0.0865461
7.37206
-0.12515
8.80075
-0.166734
10.5343
-0.207903
12.5798
-0.240056
14.9019
-0.266943
17.4274
-0.294822
20.018
-0.351395
22.4601
-0.474096
20.7866
-0.647846
16.2005
-0.860449
12.8022
-1.08679
10.1816
-1.28647
8.0704
-1.42756
6.2042
-1.58885
4.37127
-1.88491
3.27763
-2.17497
2.7572
2.20376
-2.325
-0.00318832
3.79759
-0.0421582
6.18129
-0.0866472
7.41655
-0.131015
8.84512
-0.175021
10.5783
-0.211398
12.6162
-0.245375
14.9359
-0.272424
17.4544
-0.302805
20.0484
-0.3663
22.5236
-0.497763
20.9181
-0.679151
16.3819
-0.900328
13.0234
-1.14729
10.4286
-1.36511
8.28823
-1.45387
6.29295
-1.61163
4.52903
-1.91955
3.58555
-2.17178
3.00943
2.4041
-2.37213
-0.00973882
3.80733
-0.0478293
6.21938
-0.0909006
7.45962
-0.135655
8.88988
-0.177509
10.6201
-0.216155
12.6549
-0.249671
14.9694
-0.276989
17.4817
-0.309383
20.0808
-0.37962
22.5938
-0.51939
21.0578
-0.703113
16.5656
-0.916817
13.2371
-1.15916
10.6709
-1.38323
8.5123
-1.5145
6.42422
-1.80917
4.8237
-2.29942
4.0758
-2.67749
3.3875
2.70327
-2.97666
-0.00691487
3.81424
-0.0432363
6.2557
-0.0840682
7.50045
-0.134826
8.94063
-0.179016
10.6643
-0.222164
12.698
-0.253577
15.0008
-0.281799
17.51
-0.315719
20.1147
-0.391827
22.6699
-0.541867
21.2079
-0.72762
16.7513
-0.925398
13.4348
-1.15133
10.8969
-1.39825
8.75922
-1.63489
6.66086
-1.93014
5.11895
-2.37145
4.5171
-2.86133
3.87739
2.9043
-3.06236
0.00246258
3.81178
-0.0392417
6.29741
-0.0902475
7.55146
-0.141635
8.99202
-0.186995
10.7097
-0.22636
12.7374
-0.257047
15.0315
-0.285209
17.5381
-0.320037
20.1495
-0.399933
22.7498
-0.55283
21.3608
-0.735884
16.9344
-0.934713
13.6337
-1.13895
11.1011
-1.33444
8.95471
-1.58632
6.91275
-2.11073
5.64336
-2.50282
4.90919
-2.99089
4.36546
3.63662
-3.72321
0.00452913
3.80725
-0.0352264
6.33716
-0.0827567
7.59899
-0.138285
9.04755
-0.188361
10.7597
-0.226643
12.7757
-0.258095
15.063
-0.28434
17.5644
-0.318678
20.1838
-0.396139
22.8273
-0.535278
21.4999
-0.702557
17.1017
-0.886331
13.8174
-1.06825
11.283
-1.20348
9.08993
-1.45265
7.16193
-1.83261
6.02331
-2.00867
5.08526
-1.46127
3.81806
2.17534
0.00113442
3.80611
-0.0380535
6.37635
-0.0853943
7.64633
-0.138157
9.10031
-0.188103
10.8097
-0.230717
12.8183
-0.264591
15.0969
-0.293653
17.5934
-0.331944
20.2221
-0.412981
22.9083
-0.550325
21.6372
-0.714842
17.2662
-0.890961
13.9936
-1.04531
11.4374
-1.12549
9.17012
-1.21403
7.25047
-1.2025
6.01177
-1.05718
4.93994
-0.726442
3.48732
1.4489
0.0082822
3.79783
-0.0286095
6.41324
-0.0764129
7.69413
-0.135698
9.1596
-0.188071
10.8621
-0.232789
12.863
-0.267831
15.1319
-0.299241
17.6248
-0.339653
20.2626
-0.421665
22.9903
-0.55688
21.7725
-0.712378
17.4217
-0.866698
14.1479
-0.965302
11.536
-1.0063
9.21112
-1.02735
7.27152
-1.06506
6.04948
-1.02848
4.90336
-0.822637
3.28148
0.626263
0.0132199
3.78461
-0.0257777
6.45224
-0.0784135
7.74677
-0.133361
9.21455
-0.18483
10.9135
-0.229232
12.9074
-0.266082
15.1688
-0.299255
17.658
-0.340691
20.304
-0.421145
23.0708
-0.549411
21.9007
-0.686438
17.5587
-0.805373
14.2668
-0.858987
11.5896
-0.90981
9.26194
-0.955025
7.31673
-0.98796
6.08242
-0.900788
4.81619
-0.400805
2.7815
0.225458
0.0144263
3.77019
-0.0195467
6.48621
-0.0657222
7.79294
-0.123866
9.27269
-0.17733
10.967
-0.222498
12.9526
-0.260688
15.2069
-0.293646
17.691
-0.334312
20.3447
-0.410552
23.147
-0.526091
22.0163
-0.636457
17.6691
-0.714051
14.3444
-0.77982
11.6554
-0.80502
9.28714
-0.850003
7.36172
-0.827317
6.05973
-0.610463
4.59934
-0.167963
2.339
0.0574949
0.0250138
3.74517
-0.00850608
6.51973
-0.0598719
7.84431
-0.113723
9.32654
-0.164449
11.0177
-0.208663
12.9968
-0.246149
15.2444
-0.278597
17.7234
-0.317516
20.3836
-0.386861
23.2163
-0.484542
22.1139
-0.566519
17.751
-0.628379
14.4063
-0.681526
11.7085
-0.688421
9.29403
-0.710639
7.38393
-0.638835
5.98793
-0.452006
4.41251
-0.15344
2.04043
-0.0959454
0.0304083
3.71476
0.00419116
6.54595
-0.0424363
7.89093
-0.0992641
9.38337
-0.149087
11.0675
-0.190943
13.0386
-0.22617
15.2797
-0.255906
17.7532
-0.290303
20.418
-0.350339
23.2764
-0.427186
22.1908
-0.488361
17.8122
-0.536863
14.4548
-0.563321
11.735
-0.551778
9.28249
-0.526293
7.35845
-0.449797
5.91143
-0.315817
4.27853
-0.075105
1.79972
-0.17105
0.0468547
3.66791
0.0242545
6.56855
-0.0221956
7.93738
-0.0747596
9.43593
-0.122044
11.1148
-0.160145
13.0767
-0.192245
15.3118
-0.219988
17.7809
-0.249171
20.4472
-0.298463
23.3257
-0.358155
22.2505
-0.401572
17.8556
-0.424571
14.4778
-0.409738
11.7201
-0.381611
9.25436
-0.339734
7.31657
-0.273412
5.84511
-0.159445
4.16456
0.00640533
1.63387
-0.164645
0.0537782
3.61413
0.0397603
6.58257
0.00212818
7.97502
-0.049524
9.48759
-0.0914974
11.1568
-0.12243
13.1077
-0.150992
15.3403
-0.174489
17.8044
-0.195221
20.4679
-0.232851
23.3633
-0.273961
22.2916
-0.297679
17.8794
-0.292329
14.4724
-0.252121
11.6799
-0.196935
9.19918
-0.123035
7.24267
-0.0586506
5.78072
0.0281935
4.07772
0.0537378
1.60832
-0.110907
0.0734584
3.54067
0.0702908
6.58574
0.0324453
8.01286
-0.0116387
9.53167
-0.0352934
11.1805
-0.0682066
13.1406
-0.0932682
15.3654
-0.108814
17.82
-0.124195
20.4833
-0.150457
23.3896
-0.171988
22.3131
-0.173554
17.8809
-0.144419
14.4433
-0.0884223
11.6239
-0.00937638
9.12013
0.0821549
7.15114
0.174967
5.68791
0.216787
4.0359
0.1142
1.71091
0.00329227
0.0852553
3.45542
0.0978614
6.57313
0.0780949
8.03263
0.0481971
9.56157
0.0159357
11.2127
-0.013579
13.1701
-0.0203095
15.3721
-0.027925
17.8276
-0.0402687
20.4956
-0.0540862
23.4034
-0.0549189
22.314
-0.032488
17.8585
0.0226958
14.3881
0.0974417
11.5492
0.174718
9.04286
0.256924
7.06893
0.342956
5.60188
0.366059
4.0128
0.167558
1.90941
0.17085
0.118656
3.33676
0.1539
6.53789
0.143878
8.04265
0.117948
9.5875
0.0995786
11.2311
0.0953093
13.1744
0.0870608
15.3804
0.0863402
17.8283
0.0817838
20.5002
0.073646
23.4115
0.0836892
22.3039
0.120715
17.8215
0.183297
14.3255
0.256483
11.476
0.316826
8.98251
0.383114
7.00265
0.453069
5.53193
0.452018
4.01385
0.236854
2.12458
0.407704
0.149067
3.18769
0.211547
6.47541
0.217295
8.0369
0.208797
9.59599
0.210153
11.2297
0.207008
13.1775
0.212753
15.3746
0.221981
17.8191
0.226558
20.4956
0.226817
23.4113
0.240195
22.2905
0.275792
17.7859
0.32578
14.2755
0.373725
11.4281
0.408239
8.948
0.44401
6.96687
0.474997
5.50094
0.446261
4.04258
0.251079
2.31976
0.658783
0.19818
2.98952
0.294084
6.3795
0.322423
8.00856
0.333934
9.58448
0.34464
11.219
0.355041
13.1671
0.373686
15.356
0.39153
17.8012
0.401068
20.4861
0.402117
23.4102
0.408813
22.2838
0.424299
17.7704
0.439365
14.2605
0.44677
11.4207
0.444299
8.95047
0.45787
6.9533
0.470503
5.48831
0.429819
4.08327
0.243628
2.50595
0.902411
0.264168
2.72535
0.415272
6.2284
0.470096
7.95374
0.499591
9.55499
0.516878
11.2017
0.538852
13.1451
0.569044
15.3258
0.594206
17.7761
0.607894
20.4724
0.603191
23.4149
0.589054
22.298
0.563542
17.7959
0.535131
14.2889
0.513937
11.4418
0.493079
8.97133
0.478943
6.96744
0.458565
5.50868
0.386681
4.15515
0.206937
2.68569
1.10935
0.346156
2.37919
0.556068
6.01849
0.644935
7.86487
0.693443
9.50648
0.722718
11.1725
0.762823
13.105
0.808173
15.2804
0.84358
17.7406
0.860391
20.4556
0.842419
23.4329
0.793197
22.3472
0.731707
17.8574
0.677556
14.343
0.626277
11.4931
0.553657
9.04395
0.477929
7.04317
0.404523
5.58209
0.30847
4.2512
0.152318
2.84184
1.26167
0.511013
1.86818
0.816884
5.71262
0.923615
7.75814
0.977713
9.45238
1.00932
11.1409
1.05597
13.0584
1.10981
15.2266
1.15255
17.6979
1.16976
20.4383
1.13824
23.4644
1.06553
22.4199
0.9864
17.9365
0.902266
14.4272
0.800707
11.5947
0.666525
9.17813
0.537127
7.17257
0.428179
5.69104
0.306591
4.37279
0.141407
3.00703
1.40307
0.724254
1.14392
1.06974
5.36713
1.19576
7.63213
1.27883
9.36931
1.33715
11.0825
1.40848
12.9871
1.4797
15.1554
1.5373
17.6403
1.564
20.4117
1.53508
23.4933
1.45156
22.5034
1.33393
18.0542
1.18266
14.5784
1.00416
11.7732
0.808802
9.37349
0.623277
7.35809
0.47429
5.84003
0.327327
4.51976
0.15342
3.18094
1.55649
0.786236
0.357687
1.47112
4.68224
1.67952
7.42372
1.75906
9.28978
1.80407
11.0375
1.86624
12.9249
1.94988
15.0717
2.02687
17.5633
2.07153
20.367
2.05434
23.5105
1.9507
22.6071
1.78297
18.2219
1.58363
14.7778
1.35763
11.9992
1.10035
9.63077
0.853512
7.60493
0.65429
6.03925
0.452564
4.72148
0.219573
3.41393
1.77607
0.633413
-0.275726
1.61231
3.70335
2.03216
7.00387
2.21423
9.10771
2.33651
10.9152
2.43628
12.8251
2.55522
14.9528
2.66612
17.4524
2.74449
20.2886
2.74703
23.508
2.63444
22.7197
2.44623
18.4101
2.21963
15.0044
1.95999
12.2588
1.64574
9.94502
1.28956
7.96111
0.962293
6.36652
0.63983
5.04394
0.299419
3.75434
2.07548
0.469023
-0.744749
1.36665
2.80572
1.86193
6.5086
2.10501
8.86462
2.25878
10.7615
2.33606
12.7478
2.39895
14.8899
2.43
17.4214
2.40198
20.3166
2.28005
23.6299
2.08324
22.9165
1.87008
18.6233
1.64378
15.2307
1.40229
12.5003
1.156
10.1913
0.912868
8.20424
0.686964
6.59242
0.464987
5.26592
0.222486
3.99684
2.29797
-0.0294952
-0.715254
0.367151
2.40907
0.839858
6.03589
1.16331
8.54116
1.38855
10.5362
1.55493
12.5815
1.69824
14.7466
1.80728
17.3123
1.84802
20.2759
1.7873
23.6906
1.64186
23.0619
1.46632
18.7988
1.28411
15.4129
1.10391
12.6805
0.906679
10.3885
0.694596
8.41632
0.50995
6.77707
0.331826
5.44405
0.150254
4.17841
2.44823
-0.224108
-0.491145
-0.287151
2.47211
-0.0325544
5.78129
0.288894
8.21971
0.601533
10.2236
0.879651
12.3033
1.09077
14.5355
1.25721
17.1459
1.35507
20.178
1.36128
23.6844
1.26869
23.1545
1.14038
18.9271
0.998131
15.5551
0.854747
12.8239
0.704937
10.5383
0.540981
8.58028
0.388688
6.92936
0.241554
5.59118
0.0948627
4.3251
2.54309
-0.304236
-0.186909
-0.587145
2.75502
-0.531522
5.72567
-0.274318
7.96251
0.0380785
9.9112
0.325054
12.0164
0.585786
14.2747
0.795971
16.9357
0.939966
20.034
0.996988
23.6274
0.959717
23.1918
0.874948
19.0119
0.770535
15.6596
0.662182
12.9323
0.552898
10.6476
0.428015
8.70516
0.305726
7.05165
0.187444
5.70946
0.0684803
4.44407
2.61157
-0.411719
0.224809
-0.633392
2.9767
-0.608302
5.70058
-0.471754
7.82596
-0.268577
9.70802
-0.00787758
11.7557
0.239955
14.0269
0.456043
16.7196
0.621543
19.8685
0.710946
23.538
0.710561
23.1921
0.661226
19.0612
0.590798
15.73
0.511859
13.0112
0.434411
10.7251
0.34034
8.79923
0.238014
7.15398
0.130746
5.81673
0.0231493
4.55166
2.63472
-0.350097
0.574906
-0.575354
3.20195
-0.545946
5.67117
-0.437314
7.71733
-0.30615
9.57686
-0.142693
11.5922
0.0483832
13.8358
0.231984
16.536
0.39273
19.7078
0.494462
23.4363
0.517808
23.1688
0.49464
19.0844
0.451802
15.7728
0.395577
13.0674
0.338077
10.7826
0.261928
8.87538
0.169356
7.24655
0.0719434
5.91414
-0.013751
4.63736
2.62097
-0.295235
0.870142
-0.471354
3.37807
-0.458014
5.65783
-0.368929
7.62824
-0.258178
9.46611
-0.145349
11.4794
-0.0216064
13.7121
0.117443
16.397
0.24476
19.5805
0.34033
23.3407
0.375126
23.134
0.367699
19.0918
0.3429
15.7976
0.299025
13.1113
0.251469
10.8301
0.18674
8.94011
0.103793
7.32949
0.0190841
5.99885
-0.0434668
4.69991
2.5775
-0.228267
1.09841
-0.37696
3.52677
-0.400504
5.68138
-0.327462
7.5552
-0.226337
9.36498
-0.125745
11.3788
-0.0320401
13.6184
0.0704318
16.2945
0.160182
19.4907
0.238093
23.2628
0.273133
23.099
0.271283
19.0937
0.254265
15.8146
0.217695
13.1479
0.176017
10.8718
0.120493
8.99563
0.0507421
7.39925
-0.0205392
6.07013
-0.0618744
4.74124
2.51563