/*--------------------------------*- C++ -*----------------------------------*\
| =========                 |                                                 |
| \\      /  F ield         | OpenFOAM: The Open Source CFD Toolbox           |
|  \\    /   O peration     | Version:  2412                                  |
|   \\  /    A nd           | Website:  www.openfoam.com                      |
|    \\/     M anipulation  |                                                 |
\*---------------------------------------------------------------------------*/
FoamFile
{
    version     2.0;
    format      ascii;
    arch        "LSB;label=32;scalar=64";
    class       volVectorField;
    location    "6";
    object      U;
}
// * * * * * * * * * * * * * * * * * * * * * * * * * * * * * * * * * * * * * //

dimensions      [0 1 -1 0 0 0 0];

internalField   nonuniform List<vector> 
2200
(
(0.377105 -0.000331765 0)
(1.19341 9.38283e-05 0)
(2.12278 0.00111289 0)
(3.1688 0.00152261 0)
(4.32583 0.00250253 0)
(5.57142 0.00307774 0)
(6.86375 0.0039307 0)
(8.1206 0.0041848 0)
(9.20662 0.00498597 0)
(9.90101 0.00498858 0)
(9.90128 0.00447524 0)
(9.20692 0.00400258 0)
(8.12193 0.0035656 0)
(6.86408 0.00322803 0)
(5.57154 0.00282141 0)
(4.32495 0.00240042 0)
(3.16816 0.00189321 0)
(2.12223 0.00170956 0)
(1.19221 0.00157267 0)
(0.374547 0.00133873 0)
(0.379573 0.00117565 0)
(1.19478 0.00110666 0)
(2.12471 0.00290037 0)
(3.17034 0.00463835 0)
(4.32705 0.00653018 0)
(5.57422 0.00971634 0)
(6.86599 0.0112529 0)
(8.12276 0.0133832 0)
(9.20781 0.0145338 0)
(9.90022 0.0148349 0)
(9.89959 0.0141155 0)
(9.20513 0.0129627 0)
(8.11816 0.0115767 0)
(6.86168 0.00945886 0)
(5.56996 0.0075652 0)
(4.3228 0.00616608 0)
(3.16506 0.00462323 0)
(2.11728 0.00309708 0)
(1.18531 0.00284991 0)
(0.370395 -0.000489756 0)
(0.385874 0.00313474 0)
(1.19827 0.00288026 0)
(2.12922 0.00559698 0)
(3.17526 0.00895715 0)
(4.33127 0.0127438 0)
(5.57769 0.0151595 0)
(6.86736 0.0187862 0)
(8.12225 0.0213913 0)
(9.20841 0.0235045 0)
(9.89896 0.0241175 0)
(9.89824 0.0228618 0)
(9.20243 0.0203024 0)
(8.11615 0.017055 0)
(6.85774 0.0148032 0)
(5.56421 0.0119862 0)
(4.31686 0.00878307 0)
(3.15922 0.00598088 0)
(2.11096 0.00324066 0)
(1.17821 0.00158067 0)
(0.369392 -0.00235428 0)
(0.400232 0.00501167 0)
(1.20569 0.00571153 0)
(2.13805 0.0113142 0)
(3.18346 0.0144136 0)
(4.33887 0.0190659 0)
(5.58272 0.0234054 0)
(6.8722 0.0272937 0)
(8.12732 0.0305797 0)
(9.21128 0.033685 0)
(9.89676 0.0338956 0)
(9.89468 0.0310482 0)
(9.19784 0.0277578 0)
(8.10896 0.0243303 0)
(6.85025 0.0191845 0)
(5.55769 0.0141107 0)
(4.31064 0.0101632 0)
(3.1524 0.00709692 0)
(2.10348 0.00296689 0)
(1.16993 0.00131912 0)
(0.372037 -0.00304138 0)
(0.426076 0.00530269 0)
(1.2201 0.0089009 0)
(2.15227 0.0153898 0)
(3.19829 0.0209845 0)
(4.35018 0.0261466 0)
(5.59061 0.0319371 0)
(6.87764 0.0353036 0)
(8.12846 0.0385411 0)
(9.21284 0.041842 0)
(9.89552 0.0426493 0)
(9.89257 0.0397779 0)
(9.19253 0.0351728 0)
(8.10348 0.0285416 0)
(6.8447 0.0220792 0)
(5.55108 0.0150892 0)
(4.30375 0.00916323 0)
(3.14605 0.00539203 0)
(2.09784 0.00294722 0)
(1.16149 -1.51427e-05 0)
(0.377801 -0.002446 0)
(0.453812 0.0028025 0)
(1.23643 0.0127774 0)
(2.17551 0.0177331 0)
(3.21984 0.0285357 0)
(4.37014 0.0385624 0)
(5.60785 0.041559 0)
(6.88989 0.0454518 0)
(8.13671 0.0503124 0)
(9.2172 0.0531542 0)
(9.89166 0.0522193 0)
(9.88677 0.0475228 0)
(9.18524 0.0408874 0)
(8.095 0.0330075 0)
(6.83633 0.0237555 0)
(5.54465 0.0149977 0)
(4.29839 0.00724866 0)
(3.14122 0.00196515 0)
(2.09404 0.00121739 0)
(1.15656 -0.00385845 0)
(0.387632 -0.000134297 0)
(0.483448 0.000300154 0)
(1.2701 0.0182212 0)
(2.20561 0.0207063 0)
(3.24288 0.0355023 0)
(4.38699 0.0443122 0)
(5.62277 0.0516162 0)
(6.90117 0.0572465 0)
(8.14383 0.0598499 0)
(9.2242 0.0629609 0)
(9.89151 0.0621168 0)
(9.88436 0.0558856 0)
(9.18074 0.0475744 0)
(8.08802 0.0366233 0)
(6.82756 0.0249197 0)
(5.53469 0.0148551 0)
(4.28734 0.00768986 0)
(3.1315 0.00158569 0)
(2.08706 -0.000631386 0)
(1.15668 -0.00695959 0)
(0.393 0.00281216 0)
(0.517235 0.000831964 0)
(1.31813 0.023634 0)
(2.22871 0.0275153 0)
(3.25554 0.0387043 0)
(4.40661 0.0481665 0)
(5.64112 0.0586907 0)
(6.91558 0.0672222 0)
(8.15518 0.0720331 0)
(9.23135 0.0750294 0)
(9.88871 0.0726135 0)
(9.87921 0.0640539 0)
(9.17057 0.0530962 0)
(8.07733 0.0407098 0)
(6.81634 0.0269663 0)
(5.52284 0.0149787 0)
(4.27556 0.0101257 0)
(3.11841 -0.000191133 0)
(2.07696 -0.00438804 0)
(1.16953 -0.0106341 0)
(0.399979 0.0029428 0)
(0.563228 0.00313986 0)
(1.38007 0.0272904 0)
(2.24344 0.0339349 0)
(3.27578 0.0428418 0)
(4.42305 0.0485929 0)
(5.65395 0.065832 0)
(6.92916 0.0762148 0)
(8.166 0.082109 0)
(9.23983 0.0874215 0)
(9.88647 0.0845386 0)
(9.87393 0.0736613 0)
(9.16407 0.0606195 0)
(8.06687 0.0458346 0)
(6.80282 0.0309136 0)
(5.50578 0.0202706 0)
(4.25535 0.0112606 0)
(3.09534 0.000694295 0)
(2.05423 -0.00832367 0)
(1.19588 -0.0143231 0)
(0.415534 0.00103005 0)
(0.614105 0.00550681 0)
(1.44007 0.0278918 0)
(2.25725 0.0433367 0)
(3.29544 0.0447357 0)
(4.44252 0.0553341 0)
(5.66963 0.0707145 0)
(6.94151 0.0811805 0)
(8.17533 0.0923902 0)
(9.24809 0.100644 0)
(9.88402 0.0967034 0)
(9.86718 0.0832127 0)
(9.14882 0.0680765 0)
(8.04831 0.0529478 0)
(6.77893 0.0398894 0)
(5.47671 0.0259894 0)
(4.22934 0.0148985 0)
(3.07353 0.00356268 0)
(2.01836 -0.00830446 0)
(1.22474 -0.0131469 0)
(0.436007 -0.000468682 0)
(0.679086 0.0064141 0)
(1.52551 0.0279807 0)
(2.28004 0.0484661 0)
(3.32904 0.0498283 0)
(4.45947 0.0656566 0)
(5.68154 0.0778947 0)
(6.9506 0.0899897 0)
(8.17914 0.102961 0)
(9.25021 0.112637 0)
(9.87527 0.110459 0)
(9.85509 0.0964948 0)
(9.13248 0.0797351 0)
(8.02489 0.0628367 0)
(6.7548 0.0473306 0)
(5.45449 0.0311768 0)
(4.20511 0.0123976 0)
(3.05034 0.00668313 0)
(1.98671 -0.0096698 0)
(1.24944 -0.00920158 0)
(0.453402 -0.00142531 0)
(0.727841 0.00823793 0)
(1.58332 0.0260642 0)
(2.30425 0.0547711 0)
(3.36851 0.0564554 0)
(4.49075 0.0813752 0)
(5.70755 0.0902337 0)
(6.96602 0.100594 0)
(8.18531 0.115612 0)
(9.25234 0.126699 0)
(9.86379 0.124026 0)
(9.83717 0.110018 0)
(9.10536 0.0916003 0)
(7.99306 0.0713436 0)
(6.72111 0.053239 0)
(5.42298 0.0335182 0)
(4.17482 0.00971276 0)
(3.03252 0.00823783 0)
(1.96269 -0.0134201 0)
(1.27736 -0.00606429 0)
(0.469625 -0.00223722 0)
(0.807164 0.00870712 0)
(1.69005 0.0291121 0)
(2.35777 0.0616881 0)
(3.41898 0.0662516 0)
(4.51853 0.0932874 0)
(5.73061 0.103787 0)
(6.97767 0.119524 0)
(8.18985 0.133053 0)
(9.25046 0.142246 0)
(9.8438 0.141459 0)
(9.81318 0.126522 0)
(9.07692 0.106666 0)
(7.96303 0.0808423 0)
(6.69068 0.0546616 0)
(5.40201 0.0301122 0)
(4.1524 0.00650365 0)
(3.00861 0.00955267 0)
(1.94342 -0.0196 0)
(1.29718 -0.0042789 0)
(0.479919 -0.00286624 0)
(0.855596 0.0118253 0)
(1.75227 0.0291597 0)
(2.40211 0.0720811 0)
(3.46102 0.0766842 0)
(4.57926 0.115877 0)
(5.78035 0.131746 0)
(7.0112 0.147579 0)
(8.20701 0.156672 0)
(9.25312 0.165801 0)
(9.82446 0.161902 0)
(9.78439 0.142747 0)
(9.04062 0.116461 0)
(7.92535 0.0835565 0)
(6.65807 0.0482482 0)
(5.37035 0.0261062 0)
(4.13115 0.00432947 0)
(2.97914 0.00101765 0)
(1.93552 -0.0289929 0)
(1.33054 -0.00679518 0)
(0.498619 -0.00363399 0)
(0.969373 0.0137523 0)
(1.88737 0.0416714 0)
(2.49517 0.0949264 0)
(3.51113 0.0987613 0)
(4.62902 0.136845 0)
(5.81684 0.156333 0)
(7.03826 0.180063 0)
(8.22557 0.191639 0)
(9.25609 0.197499 0)
(9.80168 0.188828 0)
(9.75459 0.161852 0)
(9.00727 0.127837 0)
(7.89559 0.0860859 0)
(6.62876 0.0434981 0)
(5.33898 0.0173984 0)
(4.10814 -0.0061828 0)
(2.93389 -0.0129268 0)
(1.93762 -0.0370608 0)
(1.36214 -0.00880721 0)
(0.517088 -0.00467932 0)
(1.04411 0.0149324 0)
(1.98566 0.0407264 0)
(2.5812 0.103568 0)
(3.56379 0.12354 0)
(4.6969 0.161646 0)
(5.86407 0.192601 0)
(7.076 0.215369 0)
(8.25166 0.228078 0)
(9.26819 0.235811 0)
(9.78748 0.221583 0)
(9.73006 0.182165 0)
(8.97012 0.135222 0)
(7.849 0.0863573 0)
(6.57861 0.0417971 0)
(5.28755 0.0130959 0)
(4.07581 -0.01027 0)
(2.89768 -0.030512 0)
(1.96187 -0.0464135 0)
(1.42187 -0.0135501 0)
(0.556101 -0.0050686 0)
(1.20086 0.0204136 0)
(2.16164 0.0574701 0)
(2.71067 0.124515 0)
(3.64301 0.151371 0)
(4.76392 0.18612 0)
(5.90326 0.221107 0)
(7.10974 0.245006 0)
(8.2743 0.265741 0)
(9.27614 0.276335 0)
(9.76945 0.256765 0)
(9.70137 0.209805 0)
(8.92915 0.154419 0)
(7.80325 0.0984589 0)
(6.53198 0.052149 0)
(5.23714 0.0117171 0)
(4.03626 -0.0144252 0)
(2.85914 -0.0379647 0)
(1.98672 -0.0442066 0)
(1.47144 -0.011583 0)
(0.582737 -0.00445628 0)
(1.32183 0.016776 0)
(2.30814 0.0541452 0)
(2.84958 0.127129 0)
(3.73414 0.173958 0)
(4.85301 0.210426 0)
(5.96672 0.248465 0)
(7.15735 0.280612 0)
(8.30574 0.309258 0)
(9.28646 0.319687 0)
(9.74744 0.299724 0)
(9.66746 0.243114 0)
(8.8773 0.178981 0)
(7.73432 0.112956 0)
(6.45518 0.0642077 0)
(5.17407 0.0185172 0)
(3.98735 -0.0159248 0)
(2.82949 -0.0439999 0)
(2.02389 -0.0487585 0)
(1.54174 -0.0147612 0)
(0.625457 -0.00336989 0)
(1.48457 0.0259236 0)
(2.50314 0.0672722 0)
(3.00297 0.147449 0)
(3.83991 0.193242 0)
(4.93373 0.243977 0)
(6.02783 0.282829 0)
(7.19745 0.315227 0)
(8.32713 0.352837 0)
(9.28752 0.367311 0)
(9.71448 0.344355 0)
(9.61631 0.284063 0)
(8.80913 0.213855 0)
(7.65985 0.142614 0)
(6.38973 0.0842954 0)
(5.11785 0.0219665 0)
(3.92422 -0.0158959 0)
(2.79951 -0.0461158 0)
(2.06495 -0.0483123 0)
(1.60415 -0.0110438 0)
(0.652078 -0.00233684 0)
(1.68089 0.0217415 0)
(2.70582 0.0736204 0)
(3.19497 0.157322 0)
(3.97642 0.223945 0)
(5.04984 0.28261 0)
(6.12711 0.331311 0)
(7.25726 0.370343 0)
(8.36707 0.409293 0)
(9.27861 0.423305 0)
(9.6592 0.403943 0)
(9.54279 0.333571 0)
(8.71583 0.255792 0)
(7.5586 0.167082 0)
(6.28489 0.0825569 0)
(5.03297 0.0274742 0)
(3.84551 -0.0211666 0)
(2.77545 -0.0499209 0)
(2.10932 -0.0455297 0)
(1.6781 -0.012867 0)
(0.683274 0.00196136 0)
(1.84526 0.0324465 0)
(2.93153 0.0794348 0)
(3.38553 0.184742 0)
(4.12451 0.248004 0)
(5.15418 0.32391 0)
(6.22028 0.388035 0)
(7.3175 0.443449 0)
(8.3932 0.484458 0)
(9.2573 0.496315 0)
(9.58691 0.472325 0)
(9.44588 0.389684 0)
(8.60307 0.296475 0)
(7.45367 0.190685 0)
(6.20068 0.0911912 0)
(4.97379 0.0236536 0)
(3.7775 -0.0327572 0)
(2.76742 -0.0536649 0)
(2.16647 -0.0503376 0)
(1.74605 -0.00495547 0)
(0.695796 0.0048716 0)
(2.13873 0.0290409 0)
(3.19593 0.0998181 0)
(3.64102 0.199917 0)
(4.32509 0.294204 0)
(5.31541 0.384928 0)
(6.35476 0.460296 0)
(7.40119 0.535257 0)
(8.46281 0.583355 0)
(9.24684 0.598687 0)
(9.51973 0.559917 0)
(9.35354 0.451566 0)
(8.49256 0.331091 0)
(7.33554 0.206566 0)
(6.06494 0.0869434 0)
(4.86196 0.0322465 0)
(3.69295 -0.038763 0)
(2.75979 -0.0500557 0)
(2.2353 -0.0408093 0)
(1.8322 -0.00692591 0)
(0.683636 0.0158594 0)
(2.33424 0.0414921 0)
(3.48937 0.0997313 0)
(3.89559 0.236882 0)
(4.54324 0.33344 0)
(5.48629 0.447075 0)
(6.49812 0.536748 0)
(7.49902 0.633348 0)
(8.53049 0.693859 0)
(9.24424 0.709672 0)
(9.46819 0.663062 0)
(9.27718 0.519371 0)
(8.38824 0.37736 0)
(7.2119 0.242438 0)
(5.96508 0.122782 0)
(4.78635 0.0391184 0)
(3.62883 -0.0383552 0)
(2.77017 -0.0510733 0)
(2.29182 -0.0342921 0)
(1.92533 0.0130818 0)
(0.65092 0.0165895 0)
(2.72782 0.0430298 0)
(3.82029 0.13462 0)
(4.22366 0.259389 0)
(4.81209 0.394314 0)
(5.70451 0.53039 0)
(6.67163 0.638538 0)
(7.62007 0.751245 0)
(8.60904 0.820205 0)
(9.22883 0.836134 0)
(9.40604 0.771115 0)
(9.17343 0.610671 0)
(8.24337 0.45005 0)
(7.04416 0.29881 0)
(5.79494 0.149419 0)
(4.62695 0.0542002 0)
(3.5416 -0.0287057 0)
(2.78022 -0.0272481 0)
(2.40258 -0.0114576 0)
(1.96347 0.0251049 0)
(0.579651 0.0290386 0)
(3.00384 0.0653768 0)
(4.20893 0.146515 0)
(4.56508 0.331555 0)
(5.1166 0.476135 0)
(5.94689 0.647728 0)
(6.86104 0.772013 0)
(7.7376 0.893741 0)
(8.67298 0.969109 0)
(9.17593 0.972598 0)
(9.28407 0.903767 0)
(9.01839 0.710043 0)
(8.06311 0.534761 0)
(6.8618 0.35055 0)
(5.65978 0.188374 0)
(4.52377 0.0647205 0)
(3.49678 -0.0178977 0)
(2.83507 -0.0252469 0)
(2.49085 -0.00160953 0)
(2.0653 0.0286605 0)
(0.472693 0.0518472 0)
(3.61629 0.0954691 0)
(4.63665 0.234567 0)
(4.96508 0.422584 0)
(5.46075 0.620777 0)
(6.22947 0.81647 -6.05293e-33)
(7.07191 0.95622 1.99334e-33)
(7.90572 1.09492 0)
(8.72753 1.16623 0)
(9.09343 1.15548 0)
(9.15254 1.05369 0)
(8.83828 0.818686 0)
(7.85381 0.615024 0)
(6.65053 0.396836 0)
(5.45013 0.212557 0)
(4.32008 0.0662836 0)
(3.40377 0.00343514 0)
(2.82972 0.00284083 0)
(2.56233 0.0300954 0)
(2.08989 0.0721716 0)
(0.218858 0.0465778 0)
(4.22842 0.235989 -7.8501e-19)
(5.10635 0.350207 6.61531e-19)
(5.36787 0.624789 0)
(5.808 0.835116 -3.46588e-19)
(6.52003 1.03652 2.79918e-19)
(7.2938 1.20112 -2.1139e-33)
(8.08043 1.34533 0)
(8.75233 1.40639 2.59305e-20)
(9.00357 1.37384 -2.10333e-19)
(9.00443 1.2282 6.25538e-20)
(8.6205 0.944905 0)
(7.59567 0.700207 -3.79855e-19)
(6.39689 0.453089 -4.61322e-19)
(5.21603 0.249068 7.96265e-19)
(4.16028 0.100527 -6.51123e-19)
(3.39662 0.0328054 0)
(2.94387 0.0488889 -2.52404e-19)
(2.68347 0.070378 0)
(2.06439 0.0719787 -1.29185e-18)
(0.0142469 0.0250588 1.56126e-18)
(4.61239 0.454747 3.72517e-20)
(5.48214 0.614885 -3.0571e-18)
(5.68911 0.897714 4.97301e-19)
(6.09177 1.09128 1.55589e-18)
(6.73134 1.30685 5.99137e-19)
(7.44413 1.47655 -9.28255e-19)
(8.18788 1.62479 0)
(8.71411 1.67148 0)
(8.8755 1.62872 4.00908e-19)
(8.82219 1.44565 0)
(8.36951 1.12299 1.35872e-18)
(7.34036 0.831319 4.15227e-19)
(6.16349 0.553204 -3.91877e-20)
(4.9842 0.285896 -1.02232e-18)
(4.02801 0.172746 0)
(3.40282 0.0974884 0)
(3.04605 0.115286 -4.44338e-18)
(2.87714 0.161406 1.12168e-17)
(2.28892 0.154061 -6.64229e-18)
(0.123517 0.022691 -7.85467e-18)
(4.8992 0.720703 3.00392e-18)
(5.80271 0.991013 -1.14506e-18)
(5.97668 1.2184 -3.90754e-19)
(6.30834 1.38547 -2.85469e-18)
(6.88632 1.60356 3.5534e-19)
(7.5388 1.77866 2.49804e-18)
(8.21541 1.92383 -6.47413e-19)
(8.61608 1.94891 0)
(8.71399 1.89571 -1.00367e-18)
(8.60236 1.686 1.84942e-18)
(8.09674 1.32843 -3.82905e-18)
(7.09266 0.994408 1.96534e-18)
(5.9297 0.659406 -1.52261e-18)
(4.86645 0.402207 3.2505e-18)
(4.08666 0.276361 0)
(3.5621 0.270178 -1.2578e-18)
(3.30361 0.324153 0)
(3.08564 0.356315 6.86207e-18)
(2.35088 0.256718 -1.62154e-17)
(0.264287 0.0582013 1.02061e-17)
(5.10591 0.993072 -1.25135e-17)
(6.05505 1.38539 6.61177e-18)
(6.18565 1.56695 1.11058e-18)
(6.47696 1.71817 0)
(6.99705 1.9235 1.81247e-18)
(7.59132 2.10732 -2.09261e-18)
(8.18846 2.23738 5.57167e-19)
(8.48336 2.24726 0)
(8.5305 2.17075 7.59788e-19)
(8.3636 1.94188 -1.24679e-18)
(7.82427 1.54624 3.85403e-18)
(6.86463 1.17429 0)
(5.75146 0.795552 -3.32839e-18)
(4.78322 0.548272 1.79258e-18)
(4.05258 0.416239 4.79078e-18)
(3.64923 0.397961 -4.2658e-18)
(3.4362 0.449887 6.86342e-18)
(3.25143 0.50325 -1.51696e-17)
(2.61939 0.409886 9.60929e-18)
(0.562646 0.137351 -1.2075e-17)
(5.25238 1.25854 7.07085e-18)
(6.22904 1.769 -7.07101e-18)
(6.36615 1.9134 3.54669e-18)
(6.60567 2.04022 -5.29553e-18)
(7.0547 2.25385 3.93883e-18)
(7.60339 2.43977 -8.01835e-19)
(8.11981 2.5589 4.06478e-20)
(8.32995 2.5571 -6.1717e-20)
(8.33149 2.45432 -1.0228e-18)
(8.12161 2.20643 -3.21887e-18)
(7.56123 1.77727 -8.55835e-18)
(6.62963 1.37061 -3.04835e-18)
(5.56534 0.965006 -3.08973e-21)
(4.7301 0.737105 -6.9251e-18)
(4.19534 0.656991 -1.61536e-19)
(3.8587 0.685722 6.51395e-18)
(3.66578 0.73609 -2.04031e-18)
(3.43833 0.776693 -1.13387e-18)
(2.71811 0.571659 0)
(0.694595 0.206889 2.73154e-17)
(5.35375 1.51507 0)
(6.37921 2.15726 2.00422e-18)
(6.49209 2.26324 0)
(6.6812 2.39313 -3.09868e-19)
(7.0836 2.58732 -4.45103e-18)
(7.58316 2.77142 1.59083e-18)
(8.01925 2.88092 -6.80752e-19)
(8.16698 2.87037 4.09957e-19)
(8.13177 2.74256 -8.3043e-19)
(7.88665 2.47378 1.08049e-18)
(7.31163 2.01631 4.74501e-18)
(6.41304 1.57515 6.80993e-18)
(5.44182 1.16081 -4.31604e-18)
(4.71045 0.950176 7.70901e-18)
(4.20034 0.878383 -6.17061e-18)
(3.91524 0.867144 0)
(3.76706 0.889321 -1.59028e-17)
(3.56604 0.922938 2.12875e-17)
(2.91527 0.743114 1.63293e-18)
(0.961786 0.320297 -3.00717e-17)
(5.40651 1.76154 -3.38539e-19)
(6.45859 2.49447 -5.23084e-18)
(6.5754 2.58327 -1.65826e-17)
(6.7343 2.71125 9.80878e-18)
(7.08727 2.91081 -2.79701e-18)
(7.52974 3.09529 1.7941e-18)
(7.89118 3.19567 -1.55126e-18)
(7.98921 3.1782 3.16644e-19)
(7.93161 3.02582 -2.63058e-18)
(7.65532 2.73823 -1.65606e-19)
(7.06952 2.25771 -5.55414e-18)
(6.20653 1.78847 -7.62909e-18)
(5.32035 1.39014 4.89359e-18)
(4.7048 1.20637 -2.83832e-18)
(4.34557 1.16379 6.89033e-18)
(4.11289 1.17918 0)
(3.95561 1.20291 -1.01232e-17)
(3.7281 1.22335 1.49911e-17)
(3.05555 0.943372 2.8781e-17)
(1.09404 0.429068 -3.37623e-17)
(5.43196 1.97944 -1.84283e-17)
(6.51723 2.85847 1.28182e-17)
(6.64562 2.89153 1.06512e-17)
(6.76224 3.03537 -1.05133e-17)
(7.06378 3.22857 3.4717e-19)
(7.45033 3.41264 4.11706e-18)
(7.74529 3.49913 4.27026e-19)
(7.81138 3.47329 -4.84629e-19)
(7.73489 3.29959 -2.14425e-18)
(7.43001 2.99538 3.26455e-18)
(6.83618 2.49549 5.12608e-18)
(6.01677 2.00552 1.19764e-17)
(5.2315 1.62294 0)
(4.69807 1.44325 2.18901e-19)
(4.33244 1.39256 -1.93584e-17)
(4.10072 1.38307 4.49491e-18)
(3.96313 1.37761 2.22619e-17)
(3.74526 1.40743 -6.47166e-18)
(3.09424 1.13475 1.40747e-17)
(1.16038 0.504348 -1.10612e-18)
(5.43224 2.20018 4.83011e-19)
(6.5391 3.14082 1.15656e-17)
(6.68607 3.15868 7.78945e-18)
(6.76594 3.32028 -1.7663e-17)
(7.01489 3.53129 1.2263e-17)
(7.35184 3.71587 -4.51848e-18)
(7.58688 3.78986 -4.69241e-19)
(7.63775 3.75083 6.75555e-19)
(7.5406 3.56112 3.10008e-18)
(7.21046 3.24121 -4.88888e-18)
(6.61419 2.72612 0)
(5.84647 2.22676 -4.76695e-18)
(5.14977 1.87218 5.46576e-18)
(4.69612 1.71713 7.14306e-18)
(4.42776 1.67309 -4.13516e-18)
(4.24398 1.66966 -1.01857e-17)
(4.09993 1.65825 -3.09175e-18)
(3.86541 1.6546 -8.71361e-20)
(3.16687 1.30117 0)
(1.1903 0.578332 0)
(5.43081 2.37955 -9.95829e-18)
(6.56818 3.48024 0)
(6.70338 3.42825 8.49184e-18)
(6.73913 3.6058 -3.75709e-18)
(6.94495 3.81473 -1.23129e-17)
(7.23556 4.00137 3.4973e-18)
(7.4287 4.06231 -5.06988e-19)
(7.47212 4.01098 -1.56562e-19)
(7.35276 3.81033 2.13869e-18)
(7.00264 3.47512 -2.29719e-18)
(6.40783 2.94831 3.00739e-18)
(5.6902 2.44832 1.49582e-17)
(5.06718 2.11506 4.78917e-19)
(4.65692 1.95099 -7.40281e-18)
(4.36613 1.8859 1.40324e-17)
(4.16907 1.87094 1.42329e-19)
(4.03299 1.82861 3.31145e-18)
(3.81503 1.8336 -1.62199e-17)
(3.14845 1.44957 1.66296e-17)
(1.17139 0.620622 -1.9093e-17)
(5.38647 2.58584 -2.85986e-21)
(6.54689 3.72492 0)
(6.71083 3.66802 0)
(6.69959 3.8591 3.52019e-18)
(6.86157 4.07662 4.60787e-18)
(7.11033 4.2588 -2.63426e-18)
(7.2746 4.31103 2.18726e-18)
(7.30907 4.25209 0)
(7.16917 4.0449 -3.59854e-18)
(6.8046 3.69505 7.37042e-18)
(6.21505 3.16146 9.41463e-18)
(5.54482 2.66986 -5.65163e-18)
(4.98288 2.35974 -6.92325e-18)
(4.62368 2.20982 1.63017e-17)
(4.38774 2.13808 -4.97886e-18)
(4.23642 2.1219 -6.00954e-18)
(4.0908 2.03613 -3.68089e-18)
(3.8618 2.03249 -1.76893e-17)
(3.14168 1.57948 2.43679e-18)
(1.13902 0.65612 2.0157e-17)
(5.37286 2.75347 -4.53384e-18)
(6.56371 4.02391 -6.89439e-18)
(6.68577 3.92057 6.25032e-19)
(6.63643 4.11629 1.09741e-20)
(6.76672 4.31824 1.53147e-18)
(6.98661 4.49173 -6.24174e-18)
(7.12727 4.53621 0)
(7.14801 4.4736 5.71582e-19)
(6.9918 4.26274 -4.49715e-19)
(6.61751 3.90065 1.20233e-17)
(6.03648 3.36452 -2.33736e-18)
(5.40363 2.88609 2.58605e-18)
(4.8847 2.58866 0)
(4.54164 2.42959 -8.87432e-18)
(4.28469 2.31388 1.0954e-17)
(4.10726 2.29665 0)
(3.98684 2.19976 -8.08341e-18)
(3.76664 2.15383 2.36089e-17)
(3.0873 1.69375 2.8684e-18)
(1.07844 0.678078 -2.50098e-17)
(5.31007 2.91663 -1.00793e-17)
(6.49942 4.24873 1.22441e-17)
(6.66132 4.14636 0)
(6.57175 4.34504 8.12528e-18)
(6.6762 4.54406 0)
(6.86969 4.69929 6.03856e-18)
(6.98414 4.74 0)
(6.98771 4.67548 0)
(6.81853 4.46175 -1.4792e-18)
(6.43788 4.09038 -1.17224e-17)
(5.86865 3.5577 -1.74738e-17)
(5.26264 3.09685 3.20953e-18)
(4.77964 2.81109 1.18299e-17)
(4.46433 2.65684 9.89581e-18)
(4.2638 2.53813 -3.50934e-17)
(4.11564 2.493 -1.4491e-17)
(3.99419 2.37376 8.4161e-18)
(3.74306 2.31745 0)
(3.01739 1.77137 2.47414e-17)
(0.999115 0.688791 -2.71196e-17)
(5.26953 3.07595 1.09627e-17)
(6.50187 4.50228 -1.32525e-17)
(6.60949 4.37754 0)
(6.49119 4.57664 -3.70739e-19)
(6.59078 4.74788 -3.20794e-18)
(6.75653 4.88885 0)
(6.84586 4.92559 -3.74111e-19)
(6.83164 4.85903 9.31774e-19)
(6.65144 4.64231 -2.06708e-18)
(6.26773 4.26451 1.22511e-18)
(5.70928 3.73966 0)
(5.12509 3.29782 1.28481e-17)
(4.67179 3.01798 2.06851e-20)
(4.36332 2.84691 5.33652e-18)
(4.14119 2.69799 6.4584e-18)
(3.95627 2.6313 0)
(3.85353 2.49921 -1.42502e-17)
(3.6174 2.39965 2.79343e-17)
(2.9205 1.84435 -2.98858e-17)
(0.899293 0.676639 5.89587e-17)
(5.19928 3.23607 0)
(6.42644 4.70987 0)
(6.55622 4.58877 -6.7748e-18)
(6.43516 4.77286 0)
(6.51513 4.94033 0)
(6.64899 5.06175 7.02538e-18)
(6.71318 5.095 -4.04954e-19)
(6.68022 5.02568 6.58973e-19)
(6.49015 4.80526 -2.62528e-19)
(6.10566 4.42374 0)
(5.55547 3.90882 -2.77092e-18)
(4.99265 3.48908 -1.06182e-17)
(4.56309 3.21682 -1.31421e-17)
(4.27106 3.04248 -5.37514e-18)
(4.0866 2.89729 7.01195e-18)
(3.93889 2.81729 -1.65933e-17)
(3.82057 2.65493 3.06277e-17)
(3.55456 2.53778 4.92831e-19)
(2.80686 1.88443 -2.83175e-17)
(0.778491 0.649643 -4.05006e-18)
(5.15461 3.36105 0)
(6.38535 4.92545 -9.52916e-18)
(6.51319 4.79279 7.65376e-18)
(6.3718 4.98121 0)
(6.44034 5.11957 0)
(6.54617 5.22424 -1.51206e-17)
(6.5879 5.25195 0)
(6.53619 5.17774 0)
(6.33883 4.95336 -4.77004e-18)
(5.95453 4.5705 2.35103e-18)
(5.41308 4.06769 -2.2965e-17)
(4.87102 3.66862 0)
(4.46176 3.40242 -1.39467e-17)
(4.16845 3.21395 4.21257e-19)
(3.94909 3.03781 -2.19676e-17)
(3.75959 2.93152 8.97558e-18)
(3.65036 2.75888 1.92571e-19)
(3.39829 2.59356 -3.29429e-17)
(2.66496 1.93004 1.53388e-17)
(0.642803 0.5995 4.41523e-18)
(5.0865 3.50439 0)
(6.35174 5.11074 -1.09655e-17)
(6.46422 4.98516 7.86332e-18)
(6.32049 5.15475 1.62605e-17)
(6.37482 5.28986 3.19547e-18)
(6.45001 5.37604 -1.74846e-18)
(6.47005 5.39797 1.30845e-18)
(6.40117 5.31764 -9.22846e-21)
(6.19783 5.08875 5.11089e-18)
(5.81434 4.70597 1.60141e-17)
(5.28298 4.21751 1.91236e-17)
(4.7589 3.83874 3.52856e-18)
(4.3605 3.581 2.02513e-17)
(4.06793 3.39292 1.27338e-17)
(3.87206 3.22217 1.58205e-17)
(3.71752 3.10547 -9.70684e-18)
(3.58682 2.9038 -1.19757e-17)
(3.295 2.7073 1.41406e-17)
(2.51066 1.91932 -8.48955e-18)
(0.465219 0.536835 1.47604e-17)
(5.05732 3.62986 1.59385e-17)
(6.29299 5.29293 1.7399e-17)
(6.42518 5.15823 4.12218e-18)
(6.26956 5.33683 2.30716e-19)
(6.30779 5.44846 -1.11577e-17)
(6.35913 5.5203 4.35263e-18)
(6.36129 5.53571 -1.44908e-18)
(6.27774 5.44791 -1.76103e-19)
(6.07017 5.21446 -6.1589e-18)
(5.68705 4.83248 -1.77037e-17)
(5.16682 4.35938 1.22197e-18)
(4.65809 3.99901 0)
(4.26772 3.74724 0)
(3.96707 3.55164 -6.55954e-18)
(3.72974 3.35746 -2.51993e-17)
(3.51809 3.21183 2.08103e-17)
(3.38993 2.99251 1.28129e-17)
(3.10752 2.73279 0)
(2.30952 1.92416 2.70974e-17)
(0.261175 0.399973 -1.6199e-17)
(5.00138 3.75817 -7.50213e-18)
(6.26832 5.46268 6.8419e-18)
(6.39502 5.33877 -9.3384e-18)
(6.22943 5.49529 -1.0067e-17)
(6.24927 5.59981 -4.27505e-18)
(6.278 5.6578 1.24663e-18)
(6.26237 5.6661 0)
(6.16642 5.57054 -1.69185e-19)
(5.9543 5.33216 5.37525e-19)
(5.57147 4.95106 0)
(5.06177 4.49298 0)
(4.56379 4.14992 2.33237e-18)
(4.17239 3.90691 3.32614e-18)
(3.86032 3.71693 -6.92938e-18)
(3.6331 3.53283 1.81612e-17)
(3.46209 3.37575 -2.24396e-17)
(3.29967 3.12959 -2.7564e-17)
(2.95469 2.81505 2.48092e-17)
(2.0523 1.82012 -9.86629e-18)
(0.0968235 0.285727 5.84005e-18)
(4.98783 3.87563 8.66911e-18)
(6.23809 5.63528 0)
(6.35714 5.49878 0)
(6.1787 5.66042 -3.28305e-18)
(6.18944 5.74209 2.62059e-18)
(6.20399 5.79069 -3.22286e-19)
(6.1746 5.7913 -4.6301e-18)
(6.06721 5.68733 -8.27744e-19)
(5.8513 5.44386 1.06078e-17)
(5.46783 5.0635 -1.41576e-18)
(4.96718 4.61891 3.12001e-18)
(4.47702 4.29102 -1.98128e-17)
(4.08646 4.05544 -2.03917e-17)
(3.76669 3.86513 -3.62489e-18)
(3.50058 3.66871 0)
(3.25289 3.49035 -3.26395e-19)
(3.0669 3.21294 1.42668e-17)
(2.71347 2.78965 -2.68731e-17)
(1.8452 1.73881 2.03992e-17)
(-0.0409544 -0.122994 1.8809e-17)
(4.93584 3.99287 -2.05764e-17)
(6.18529 5.75846 -8.17326e-18)
(6.3156 5.63416 1.59496e-19)
(6.13857 5.79376 4.18743e-18)
(6.13805 5.8755 0)
(6.1366 5.91751 1.14232e-17)
(6.09342 5.91176 5.48498e-18)
(5.97561 5.80066 -7.67804e-19)
(5.75459 5.55221 -5.27886e-18)
(5.36977 5.17292 -1.36435e-18)
(4.87632 4.74109 1.2622e-18)
(4.39145 4.4283 1.73131e-17)
(3.99707 4.20422 1.97949e-17)
(3.66206 4.02681 3.45331e-18)
(3.39378 3.84837 1.8117e-17)
(3.1788 3.66624 0)
(2.95382 3.35957 0)
(2.48949 2.86307 1.7229e-17)
(1.40337 1.40854 1.11998e-19)
(0.0319726 0.52965 -1.86511e-17)
(4.9188 4.10976 1.11151e-17)
(6.15896 5.94433 2.44748e-17)
(6.28736 5.80021 -3.61019e-17)
(6.10128 5.94509 2.14041e-17)
(6.0842 6.00147 -2.39565e-18)
(6.07211 6.04051 1.47461e-17)
(6.0164 6.02825 0)
(5.88842 5.91127 1.41015e-18)
(5.66236 5.65893 0)
(5.27531 5.28198 1.70683e-17)
(4.78819 4.86312 -1.72992e-18)
(4.30878 4.56599 1.93422e-18)
(3.91517 4.3545 2.22792e-17)
(3.57459 4.18639 -7.54984e-18)
(3.2716 4.01106 -9.54541e-18)
(2.9623 3.82534 0)
(2.63674 3.50388 0)
(2.02634 2.82873 0)
(0.919994 1.69314 -9.43551e-18)
(0.337102 1.9666 -5.86056e-18)
(4.88333 4.21038 0)
(6.13749 6.0602 0)
(6.28285 5.94028 1.29368e-17)
(6.06677 6.07728 -1.78045e-17)
(6.035 6.12479 1.18436e-17)
(6.01098 6.15606 -1.34477e-17)
(5.94124 6.13848 -5.16603e-19)
(5.804 6.01677 4.00038e-19)
(5.57207 5.76155 9.47369e-19)
(5.18315 5.38801 -1.9524e-17)
(4.70288 4.98256 2.94916e-18)
(4.23003 4.70217 1.70634e-17)
(3.83517 4.50721 -2.21345e-17)
(3.47938 4.36099 -2.47906e-17)
(3.165 4.2163 8.58809e-18)
(2.87944 4.04523 0)
(2.51464 3.66947 1.34757e-17)
(1.64883 2.71822 1.59495e-17)
(1.0366 2.27695 -1.77346e-17)
(0.657235 2.84686 2.20365e-17)
(4.8585 4.31597 0)
(6.11095 6.20179 1.97372e-17)
(6.21912 6.06491 -3.26355e-18)
(5.99822 6.19968 2.20818e-17)
(5.98809 6.24281 -1.24454e-17)
(5.94803 6.26442 0)
(5.86934 6.24357 0)
(5.72203 6.11706 0)
(5.48496 5.86008 3.18822e-18)
(5.09439 5.49113 6.95145e-19)
(4.62234 5.0997 0)
(4.15827 4.83668 -1.68705e-17)
(3.76692 4.6587 0)
(3.41016 4.53024 1.76955e-17)
(3.07703 4.40031 -1.22019e-17)
(2.71312 4.22297 -9.90525e-18)
(2.20852 3.75664 -2.54045e-17)
(1.42516 2.99534 -1.43086e-17)
(1.01241 2.99198 -2.55657e-17)
(0.87405 3.38984 1.81147e-17)
(4.79774 4.39791 -6.99286e-18)
(6.03218 6.29747 4.5781e-19)
(6.16361 6.16377 -3.46264e-18)
(5.97302 6.30682 -1.73033e-17)
(5.94629 6.34695 0)
(5.88843 6.36856 0)
(5.79934 6.34258 0)
(5.64183 6.21245 2.81194e-20)
(5.39939 5.95447 -4.20275e-18)
(5.00814 5.5911 0)
(4.54627 5.21446 0)
(4.0928 4.96957 0)
(3.70501 4.81123 0)
(3.34058 4.70857 1.31474e-17)
(3.00032 4.6089 3.34372e-17)
(2.65462 4.42063 1.05752e-17)
(2.14726 3.85011 2.42747e-17)
(1.63386 3.35685 -1.98538e-17)
(1.19316 3.66686 8.28551e-18)
(1.04865 3.81945 0)
(4.78392 4.49026 6.76403e-18)
(6.03767 6.4549 -3.8859e-17)
(6.18712 6.33214 -1.11332e-17)
(5.95963 6.45836 -2.71265e-18)
(5.89209 6.45313 2.87945e-18)
(5.83636 6.47571 -1.94794e-17)
(5.7297 6.43909 1.24846e-18)
(5.5634 6.30535 4.09467e-18)
(5.31636 6.04664 0)
(4.92578 5.68988 -1.23399e-18)
(4.47577 5.32797 1.12343e-18)
(4.03482 5.10046 0)
(3.65599 4.96173 0)
(3.30112 4.88088 -1.64597e-17)
(2.96685 4.79208 2.96716e-18)
(2.57598 4.56937 -9.94227e-18)
(1.96099 4.00242 2.20093e-17)
(1.39701 3.77712 1.96914e-17)
(1.0653 4.10766 -3.46345e-17)
(0.992928 4.1889 1.81513e-17)
(4.75375 4.55204 1.26992e-17)
(6.02726 6.56004 3.69646e-17)
(6.14852 6.45285 1.33672e-17)
(5.88954 6.57075 0)
(5.84377 6.57132 0)
(5.77778 6.57962 1.47172e-17)
(5.6554 6.53677 -7.58652e-18)
(5.48288 6.39779 -3.88599e-18)
(5.23183 6.13851 -2.96231e-20)
(4.84425 5.78881 1.37486e-17)
(4.40836 5.44123 -2.02962e-17)
(3.9821 5.22998 0)
(3.61568 5.11129 0)
(3.26908 5.05598 -1.17286e-17)
(2.93596 4.9856 -1.53476e-17)
(2.54053 4.74052 0)
(1.97387 4.19451 -3.21584e-17)
(1.62807 4.19114 -6.01541e-18)
(1.41293 4.62625 3.52418e-17)
(1.11697 4.62967 -1.85891e-17)
(4.69158 4.63832 -2.39987e-17)
(5.95031 6.66413 -1.7519e-17)
(6.04678 6.54745 0)
(5.82021 6.67704 0)
(5.7986 6.68411 0)
(5.70422 6.68096 0)
(5.57919 6.63627 7.97706e-18)
(5.39859 6.49045 -5.26674e-18)
(5.14614 6.23071 0)
(4.7639 5.88846 -1.23877e-17)
(4.34372 5.55382 3.65931e-17)
(3.93469 5.35634 1.56572e-18)
(3.5872 5.25556 2.37121e-18)
(3.26262 5.22148 1.98655e-17)
(2.94381 5.15264 -1.32798e-17)
(2.50776 4.84041 0)
(2.03434 4.48081 1.01892e-17)
(1.57723 4.77158 7.01685e-19)
(1.13522 5.01932 -5.41794e-18)
(0.742765 5.08749 1.1192e-17)
(4.62235 4.69952 1.13701e-17)
(5.88825 6.78222 -1.70411e-17)
(6.02188 6.67915 0)
(5.79723 6.8124 -4.04181e-18)
(5.73458 6.79282 1.50999e-17)
(5.62969 6.78927 0)
(5.49612 6.73421 0)
(5.30937 6.58292 9.59156e-18)
(5.05747 6.32232 -5.64167e-19)
(4.6825 5.98734 1.19445e-17)
(4.27997 5.66453 -1.73743e-17)
(3.89099 5.47859 1.1274e-17)
(3.56616 5.39273 0)
(3.2626 5.37741 -1.0858e-17)
(2.94706 5.30968 6.77713e-18)
(2.54037 5.02634 7.36242e-18)
(2.07087 4.76812 0)
(1.71396 5.08841 5.17199e-18)
(1.29299 5.6961 8.8001e-18)
(1.16504 5.87535 2.60566e-18)
(4.58259 4.79161 -2.15249e-17)
(5.86382 6.93052 2.4594e-17)
(5.98068 6.84309 1.75576e-17)
(5.72161 6.95887 -4.58164e-18)
(5.65351 6.91054 -2.2761e-17)
(5.55372 6.90194 0)
(5.40567 6.83267 6.79729e-18)
(5.21769 6.67567 -4.07579e-18)
(4.96743 6.41337 -1.91574e-19)
(4.60152 6.08519 -1.0394e-17)
(4.21752 5.77228 -8.46997e-19)
(3.85065 5.59484 -1.2644e-17)
(3.55267 5.51872 1.54972e-17)
(3.2794 5.51378 4.96042e-18)
(2.99181 5.45019 -1.15956e-17)
(2.55151 5.12996 1.24306e-17)
(2.28081 4.98846 0)
(1.92485 5.74159 0)
(1.68157 6.2854 1.8097e-18)
(0.492267 6.32523 -6.10091e-18)
(4.48966 4.85503 1.0335e-17)
(5.78376 7.04391 2.28919e-17)
(5.88367 6.93974 -1.73336e-17)
(5.62888 7.06103 1.62099e-17)
(5.57938 7.02487 2.2019e-17)
(5.46245 7.0057 0)
(5.30868 6.93053 -7.22666e-18)
(5.12204 6.76626 -5.49477e-18)
(4.87501 6.5022 0)
(4.51932 6.1792 0)
(4.15588 5.87496 0)
(3.81353 5.70361 0)
(3.54359 5.63217 -1.76571e-17)
(3.2998 5.62963 -6.74319e-18)
(3.02757 5.54912 0)
(2.66696 5.28736 -6.35779e-18)
(2.49878 5.40906 0)
(2.52689 5.76744 -2.81824e-18)
(2.59103 5.72544 2.53294e-18)
(1.42098 5.74724 -3.14159e-19)
(4.38998 4.93267 -1.97474e-17)
(5.68221 7.18045 -1.45309e-17)