/*--------------------------------*- C++ -*----------------------------------*\
| =========                 |                                                 |
| \\      /  F ield         | OpenFOAM: The Open Source CFD Toolbox           |
|  \\    /   O peration     | Version:  2412                                  |
|   \\  /    A nd           | Website:  www.openfoam.com                      |
|    \\/     M anipulation  |                                                 |
\*---------------------------------------------------------------------------*/
FoamFile
{
    version     2.0;
    format      ascii;
    arch        "LSB;label=32;scalar=64";
    class       surfaceScalarField;
    location    "0.95";
    object      phi;
}
// * * * * * * * * * * * * * * * * * * * * * * * * * * * * * * * * * * * * * //

dimensions      [0 3 -1 0 0 0 0];

oriented        oriented;

internalField   nonuniform List<scalar> 
799
(
1.97309e-05
3.94619e-05
5.91929e-05
7.89238e-05
9.86546e-05
0.000118385
0.000138116
0.000157846
0.000177577
0.000197307
0.000217037
0.000236766
0.000256496
0.000276225
0.000295954
0.000315683
0.000335411
0.000355139
0.000374867
0.000394594
0.000414321
0.000434047
0.000453773
0.000473499
0.000493224
0.000512949
0.000532673
0.000552396
0.000572119
0.000591842
0.000611563
0.000631285
0.000651005
0.000670725
0.000690444
0.000710163
0.000729881
0.000749598
0.000769314
0.00078903
0.000808744
0.000828458
0.000848171
0.000867884
0.000887595
0.000907305
0.000927015
0.000946724
0.000966431
0.000986138
0.00100584
0.00102555
0.00104525
0.00106495
0.00108466
0.00110436
0.00112406
0.00114375
0.00116345
0.00118315
0.00120284
0.00122253
0.00124223
0.00126192
0.00128161
0.00130129
0.00132098
0.00134067
0.00136035
0.00138003
0.00139972
0.0014194
0.00143907
0.00145875
0.00147843
0.0014981
0.00151777
0.00153744
0.00155711
0.00157678
0.00159645
0.00161611
0.00163577
0.00165544
0.00167509
0.00169475
0.00171441
0.00173406
0.00175371
0.00177336
0.00179301
0.00181266
0.00183231
0.00185195
0.00187159
0.00189123
0.00191087
0.0019305
0.00195013
0.00196976
0.00198939
0.00200902
0.00202865
0.00204827
0.00206789
0.00208751
0.00210712
0.00212674
0.00214635
0.00216596
0.00218557
0.00220517
0.00222477
0.00224437
0.00226397
0.00228357
0.00230316
0.00232275
0.00234234
0.00236192
0.00238151
0.00240109
0.00242066
0.00244024
0.00245981
0.00247938
0.00249895
0.00251851
0.00253808
0.00255764
0.00257719
0.00259675
0.0026163
0.00263584
0.00265539
0.00267493
0.00269447
0.00271401
0.00273354
0.00275307
0.0027726
0.00279212
0.00281164
0.00283116
0.00285068
0.00287019
0.0028897
0.0029092
0.00292871
0.00294821
0.0029677
0.0029872
0.00300668
0.00302617
0.00304565
0.00306513
0.00308461
0.00310408
0.00312355
0.00314302
0.00316248
0.00318194
0.00320139
0.00322084
0.00324029
0.00325973
0.00327917
0.00329861
0.00331804
0.00333747
0.0033569
0.00337632
0.00339573
0.00341515
0.00343456
0.00345396
0.00347336
0.00349276
0.00351216
0.00353154
0.00355093
0.00357031
0.00358969
0.00360906
0.00362843
0.00364779
0.00366716
0.00368651
0.00370586
0.00372521
0.00374455
0.00376389
0.00378322
0.00380255
0.00382188
0.0038412
0.00386052
0.00387983
0.00389913
0.00391843
0.00393773
0.00395702
0.00397631
0.00399559
0.00401487
0.00403415
0.00405341
0.00407268
0.00409193
0.00411119
0.00413044
0.00414968
0.00416892
0.00418815
0.00420738
0.0042266
0.00424582
0.00426503
0.00428424
0.00430344
0.00432263
0.00434182
0.00436101
0.00438019
0.00439936
0.00441853
0.00443769
0.00445685
0.004476
0.00449515
0.00451429
0.00453342
0.00455255
0.00457167
0.00459079
0.0046099
0.004629
0.0046481
0.00466719
0.00468628
0.00470536
0.00472443
0.0047435
0.00476256
0.00478162
0.00480067
0.00481971
0.00483874
0.00485777
0.0048768
0.00489581
0.00491482
0.00493383
0.00495282
0.00497181
0.00499079
0.00500977
0.00502874
0.0050477
0.00506666
0.0050856
0.00510455
0.00512348
0.00514241
0.00516133
0.00518024
0.00519914
0.00521804
0.00523693
0.00525582
0.00527469
0.00529356
0.00531242
0.00533127
0.00535012
0.00536895
0.00538778
0.00540661
0.00542542
0.00544423
0.00546302
0.00548181
0.00550059
0.00551937
0.00553813
0.00555689
0.00557564
0.00559438
0.00561311
0.00563184
0.00565055
0.00566926
0.00568796
0.00570664
0.00572533
0.005744
0.00576266
0.00578131
0.00579996
0.00581859
0.00583722
0.00585584
0.00587445
0.00589304
0.00591163
0.00593021
0.00594878
0.00596735
0.0059859
0.00600444
0.00602297
0.00604149
0.00606
0.00607851
0.006097
0.00611548
0.00613395
0.00615242
0.00617087
0.00618931
0.00620774
0.00622616
0.00624457
0.00626297
0.00628136
0.00629973
0.0063181
0.00633646
0.0063548
0.00637313
0.00639146
0.00640977
0.00642807
0.00644635
0.00646463
0.0064829
0.00650115
0.00651939
0.00653762
0.00655584
0.00657404
0.00659224
0.00661042
0.00662859
0.00664675
0.00666489
0.00668302
0.00670114
0.00671925
0.00673734
0.00675542
0.00677349
0.00679155
0.00680959
0.00682762
0.00684563
0.00686363
0.00688162
0.00689959
0.00691755
0.0069355
0.00695343
0.00697135
0.00698926
0.00700715
0.00702502
0.00704288
0.00706073
0.00707856
0.00709638
0.00711418
0.00713196
0.00714973
0.00716749
0.00718523
0.00720296
0.00722066
0.00723836
0.00725603
0.0072737
0.00729134
0.00730897
0.00732658
0.00734418
0.00736175
0.00737932
0.00739686
0.00741439
0.0074319
0.00744939
0.00746687
0.00748432
0.00750176
0.00751918
0.00753658
0.00755379
0.00756474
0.00738151
0.00541591
5.99372e-06
-0.00540877
-0.00738031
-0.00756467
-0.00755377
-0.00753656
-0.00751916
-0.00750174
-0.0074843
-0.00746684
-0.00744937
-0.00743187
-0.00741436
-0.00739684
-0.00737929
-0.00736173
-0.00734415
-0.00732656
-0.00730895
-0.00729132
-0.00727367
-0.00725601
-0.00723833
-0.00722064
-0.00720293
-0.00718521
-0.00716747
-0.00714971
-0.00713194
-0.00711415
-0.00709635
-0.00707854
-0.00706071
-0.00704286
-0.007025
-0.00700712
-0.00698923
-0.00697133
-0.00695341
-0.00693548
-0.00691753
-0.00689957
-0.0068816
-0.00686361
-0.00684561
-0.00682759
-0.00680957
-0.00679152
-0.00677347
-0.0067554
-0.00673732
-0.00671923
-0.00670112
-0.006683
-0.00666487
-0.00664673
-0.00662857
-0.0066104
-0.00659222
-0.00657402
-0.00655582
-0.0065376
-0.00651937
-0.00650113
-0.00648288
-0.00646461
-0.00644633
-0.00642805
-0.00640975
-0.00639144
-0.00637311
-0.00635478
-0.00633644
-0.00631808
-0.00629971
-0.00628134
-0.00626295
-0.00624455
-0.00622614
-0.00620772
-0.00618929
-0.00617085
-0.0061524
-0.00613393
-0.00611546
-0.00609698
-0.00607849
-0.00605999
-0.00604147
-0.00602295
-0.00600442
-0.00598588
-0.00596733
-0.00594877
-0.0059302
-0.00591162
-0.00589303
-0.00587443
-0.00585582
-0.0058372
-0.00581858
-0.00579994
-0.0057813
-0.00576264
-0.00574398
-0.00572531
-0.00570663
-0.00568794
-0.00566924
-0.00565053
-0.00563182
-0.0056131
-0.00559436
-0.00557562
-0.00555687
-0.00553812
-0.00551935
-0.00550058
-0.0054818
-0.00546301
-0.00544421
-0.0054254
-0.00540659
-0.00538777
-0.00536894
-0.0053501
-0.00533126
-0.0053124
-0.00529354
-0.00527468
-0.0052558
-0.00523692
-0.00521803
-0.00519913
-0.00518022
-0.00516131
-0.00514239
-0.00512347
-0.00510453
-0.00508559
-0.00506664
-0.00504769
-0.00502873
-0.00500976
-0.00499078
-0.0049718
-0.00495281
-0.00493381
-0.00491481
-0.0048958
-0.00487678
-0.00485776
-0.00483873
-0.0048197
-0.00480065
-0.0047816
-0.00476255
-0.00474349
-0.00472442
-0.00470535
-0.00468627
-0.00466718
-0.00464809
-0.00462899
-0.00460989
-0.00459078
-0.00457166
-0.00455254
-0.00453341
-0.00451427
-0.00449514
-0.00447599
-0.00445684
-0.00443768
-0.00441852
-0.00439935
-0.00438018
-0.004361
-0.00434181
-0.00432262
-0.00430343
-0.00428423
-0.00426502
-0.00424581
-0.00422659
-0.00420737
-0.00418814
-0.00416891
-0.00414967
-0.00413043
-0.00411118
-0.00409193
-0.00407267
-0.0040534
-0.00403414
-0.00401486
-0.00399559
-0.0039763
-0.00395702
-0.00393772
-0.00391843
-0.00389912
-0.00387982
-0.00386051
-0.00384119
-0.00382187
-0.00380255
-0.00378322
-0.00376388
-0.00374454
-0.0037252
-0.00370585
-0.0036865
-0.00366715
-0.00364779
-0.00362842
-0.00360905
-0.00358968
-0.0035703
-0.00355092
-0.00353154
-0.00351215
-0.00349275
-0.00347336
-0.00345396
-0.00343455
-0.00341514
-0.00339573
-0.00337631
-0.00335689
-0.00333746
-0.00331804
-0.0032986
-0.00327917
-0.00325973
-0.00324028
-0.00322084
-0.00320138
-0.00318193
-0.00316247
-0.00314301
-0.00312354
-0.00310408
-0.0030846
-0.00306513
-0.00304565
-0.00302617
-0.00300668
-0.00298719
-0.0029677
-0.0029482
-0.0029287
-0.0029092
-0.00288969
-0.00287019
-0.00285067
-0.00283116
-0.00281164
-0.00279212
-0.00277259
-0.00275307
-0.00273354
-0.002714
-0.00269447
-0.00267493
-0.00265539
-0.00263584
-0.00261629
-0.00259674
-0.00257719
-0.00255763
-0.00253807
-0.00251851
-0.00249895
-0.00247938
-0.00245981
-0.00244024
-0.00242066
-0.00240108
-0.0023815
-0.00236192
-0.00234233
-0.00232275
-0.00230316
-0.00228356
-0.00226397
-0.00224437
-0.00222477
-0.00220517
-0.00218556
-0.00216596
-0.00214635
-0.00212673
-0.00210712
-0.0020875
-0.00206789
-0.00204827
-0.00202864
-0.00200902
-0.00198939
-0.00196976
-0.00195013
-0.0019305
-0.00191086
-0.00189123
-0.00187159
-0.00185195
-0.0018323
-0.00181266
-0.00179301
-0.00177336
-0.00175371
-0.00173406
-0.00171441
-0.00169475
-0.00167509
-0.00165543
-0.00163577
-0.00161611
-0.00159645
-0.00157678
-0.00155711
-0.00153744
-0.00151777
-0.0014981
-0.00147843
-0.00145875
-0.00143907
-0.00141939
-0.00139971
-0.00138003
-0.00136035
-0.00134067
-0.00132098
-0.00130129
-0.00128161
-0.00126192
-0.00124223
-0.00122253
-0.00120284
-0.00118315
-0.00116345
-0.00114375
-0.00112405
-0.00110436
-0.00108466
-0.00106495
-0.00104525
-0.00102555
-0.00100584
-0.000986137
-0.000966431
-0.000946723
-0.000927014
-0.000907305
-0.000887594
-0.000867883
-0.000848171
-0.000828458
-0.000808744
-0.000789029
-0.000769314
-0.000749597
-0.00072988
-0.000710162
-0.000690444
-0.000670725
-0.000651005
-0.000631284
-0.000611563
-0.000591841
-0.000572119
-0.000552396
-0.000532672
-0.000512948
-0.000493224
-0.000473499
-0.000453773
-0.000434047
-0.000414321
-0.000394594
-0.000374867
-0.000355139
-0.000335411
-0.000315683
-0.000295954
-0.000276225
-0.000256496
-0.000236767
-0.000217037
-0.000197307
-0.000177577
-0.000157846
-0.000138116
-0.000118385
-9.86547e-05
-7.89239e-05
-5.9193e-05
-3.9462e-05
-1.9731e-05
)
;

boundaryField
{
    left
    {
        type            calculated;
        value           uniform 0;
    }
    right
    {
        type            calculated;
        value           uniform 0;
    }
    frontBackUpDown
    {
        type            empty;
    }
}


// ************************************************************************* //
