/*--------------------------------*- C++ -*----------------------------------*\
| =========                 |                                                 |
| \\      /  F ield         | OpenFOAM: The Open Source CFD Toolbox           |
|  \\    /   O peration     | Version:  2412                                  |
|   \\  /    A nd           | Website:  www.openfoam.com                      |
|    \\/     M anipulation  |                                                 |
\*---------------------------------------------------------------------------*/
FoamFile
{
    version     2.0;
    format      ascii;
    arch        "LSB;label=32;scalar=64";
    class       volVectorField;
    location    "0.95";
    object      U_0;
}
// * * * * * * * * * * * * * * * * * * * * * * * * * * * * * * * * * * * * * //

dimensions      [0 1 -1 0 0 0 0];

internalField   nonuniform List<vector> 
800
(
(0.000986932 0 0)
(0.00296081 0 0)
(0.00493468 0 0)
(0.00690856 0 0)
(0.00888242 0 0)
(0.0108563 0 0)
(0.0128301 0 0)
(0.0148039 0 0)
(0.0167778 0 0)
(0.0187516 0 0)
(0.0207253 0 0)
(0.0226991 0 0)
(0.0246728 0 0)
(0.0266466 0 0)
(0.0286202 0 0)
(0.0305939 0 0)
(0.0325675 0 0)
(0.0345411 0 0)
(0.0365147 0 0)
(0.0384882 0 0)
(0.0404617 0 0)
(0.0424351 0 0)
(0.0444085 0 0)
(0.0463819 0 0)
(0.0483552 0 0)
(0.0503285 0 0)
(0.0523017 0 0)
(0.0542748 0 0)
(0.0562479 0 0)
(0.058221 0 0)
(0.060194 0 0)
(0.0621669 0 0)
(0.0641397 0 0)
(0.0661125 0 0)
(0.0680853 0 0)
(0.0700579 0 0)
(0.0720305 0 0)
(0.0740031 0 0)
(0.0759755 0 0)
(0.0779479 0 0)
(0.0799202 0 0)
(0.0818924 0 0)
(0.0838645 0 0)
(0.0858365 0 0)
(0.0878085 0 0)
(0.0897804 0 0)
(0.0917521 0 0)
(0.0937238 0 0)
(0.0956954 0 0)
(0.0976669 0 0)
(0.0996383 0 0)
(0.10161 0 0)
(0.103581 0 0)
(0.105552 0 0)
(0.107523 0 0)
(0.109494 0 0)
(0.111464 0 0)
(0.113435 0 0)
(0.115406 0 0)
(0.117376 0 0)
(0.119346 0 0)
(0.121316 0 0)
(0.123286 0 0)
(0.125256 0 0)
(0.127226 0 0)
(0.129196 0 0)
(0.131165 0 0)
(0.133135 0 0)
(0.135104 0 0)
(0.137073 0 0)
(0.139042 0 0)
(0.141011 0 0)
(0.14298 0 0)
(0.144948 0 0)
(0.146917 0 0)
(0.148885 0 0)
(0.150853 0 0)
(0.152821 0 0)
(0.154789 0 0)
(0.156756 0 0)
(0.158724 0 0)
(0.160691 0 0)
(0.162658 0 0)
(0.164625 0 0)
(0.166592 0 0)
(0.168558 0 0)
(0.170525 0 0)
(0.172491 0 0)
(0.174457 0 0)
(0.176423 0 0)
(0.178389 0 0)
(0.180354 0 0)
(0.18232 0 0)
(0.184285 0 0)
(0.18625 0 0)
(0.188215 0 0)
(0.190179 0 0)
(0.192144 0 0)
(0.194108 0 0)
(0.196072 0 0)
(0.198036 0 0)
(0.199999 0 0)
(0.201962 0 0)
(0.203926 0 0)
(0.205889 0 0)
(0.207851 0 0)
(0.209814 0 0)
(0.211776 0 0)
(0.213738 0 0)
(0.2157 0 0)
(0.217661 0 0)
(0.219623 0 0)
(0.221584 0 0)
(0.223545 0 0)
(0.225505 0 0)
(0.227466 0 0)
(0.229426 0 0)
(0.231386 0 0)
(0.233346 0 0)
(0.235305 0 0)
(0.237264 0 0)
(0.239223 0 0)
(0.241182 0 0)
(0.24314 0 0)
(0.245098 0 0)
(0.247056 0 0)
(0.249014 0 0)
(0.250971 0 0)
(0.252928 0 0)
(0.254885 0 0)
(0.256842 0 0)
(0.258798 0 0)
(0.260754 0 0)
(0.26271 0 0)
(0.264665 0 0)
(0.26662 0 0)
(0.268575 0 0)
(0.270529 0 0)
(0.272484 0 0)
(0.274438 0 0)
(0.276391 0 0)
(0.278345 0 0)
(0.280298 0 0)
(0.28225 0 0)
(0.284203 0 0)
(0.286155 0 0)
(0.288107 0 0)
(0.290058 0 0)
(0.292009 0 0)
(0.29396 0 0)
(0.295911 0 0)
(0.297861 0 0)
(0.299811 0 0)
(0.30176 0 0)
(0.303709 0 0)
(0.305658 0 0)
(0.307607 0 0)
(0.309555 0 0)
(0.311503 0 0)
(0.31345 0 0)
(0.315397 0 0)
(0.317344 0 0)
(0.31929 0 0)
(0.321236 0 0)
(0.323182 0 0)
(0.325127 0 0)
(0.327072 0 0)
(0.329017 0 0)
(0.330961 0 0)
(0.332905 0 0)
(0.334848 0 0)
(0.336791 0 0)
(0.338734 0 0)
(0.340676 0 0)
(0.342618 0 0)
(0.34456 0 0)
(0.346501 0 0)
(0.348441 0 0)
(0.350382 0 0)
(0.352321 0 0)
(0.354261 0 0)
(0.3562 0 0)
(0.358139 0 0)
(0.360077 0 0)
(0.362015 0 0)
(0.363952 0 0)
(0.365889 0 0)
(0.367826 0 0)
(0.369762 0 0)
(0.371697 0 0)
(0.373632 0 0)
(0.375567 0 0)
(0.377502 0 0)
(0.379435 0 0)
(0.381369 0 0)
(0.383302 0 0)
(0.385234 0 0)
(0.387166 0 0)
(0.389098 0 0)
(0.391029 0 0)
(0.39296 0 0)
(0.39489 0 0)
(0.39682 0 0)
(0.398749 0 0)
(0.400678 0 0)
(0.402606 0 0)
(0.404534 0 0)
(0.406461 0 0)
(0.408388 0 0)
(0.410314 0 0)
(0.41224 0 0)
(0.414165 0 0)
(0.41609 0 0)
(0.418014 0 0)
(0.419938 0 0)
(0.421861 0 0)
(0.423784 0 0)
(0.425706 0 0)
(0.427627 0 0)
(0.429548 0 0)
(0.431469 0 0)
(0.433389 0 0)
(0.435308 0 0)
(0.437227 0 0)
(0.439146 0 0)
(0.441063 0 0)
(0.442981 0 0)
(0.444897 0 0)
(0.446813 0 0)
(0.448729 0 0)
(0.450644 0 0)
(0.452558 0 0)
(0.454472 0 0)
(0.456385 0 0)
(0.458298 0 0)
(0.46021 0 0)
(0.462121 0 0)
(0.464032 0 0)
(0.465942 0 0)
(0.467852 0 0)
(0.469761 0 0)
(0.471669 0 0)
(0.473577 0 0)
(0.475484 0 0)
(0.477391 0 0)
(0.479297 0 0)
(0.481202 0 0)
(0.483106 0 0)
(0.48501 0 0)
(0.486914 0 0)
(0.488816 0 0)
(0.490718 0 0)
(0.492619 0 0)
(0.49452 0 0)
(0.49642 0 0)
(0.498319 0 0)
(0.500218 0 0)
(0.502116 0 0)
(0.504013 0 0)
(0.505909 0 0)
(0.507805 0 0)
(0.5097 0 0)
(0.511595 0 0)
(0.513489 0 0)
(0.515381 0 0)
(0.517274 0 0)
(0.519165 0 0)
(0.521056 0 0)
(0.522946 0 0)
(0.524835 0 0)
(0.526724 0 0)
(0.528612 0 0)
(0.530499 0 0)
(0.532385 0 0)
(0.534271 0 0)
(0.536155 0 0)
(0.538039 0 0)
(0.539923 0 0)
(0.541805 0 0)
(0.543687 0 0)
(0.545567 0 0)
(0.547447 0 0)
(0.549327 0 0)
(0.551205 0 0)
(0.553083 0 0)
(0.554959 0 0)
(0.556835 0 0)
(0.55871 0 0)
(0.560584 0 0)
(0.562458 0 0)
(0.56433 0 0)
(0.566202 0 0)
(0.568073 0 0)
(0.569943 0 0)
(0.571812 0 0)
(0.57368 0 0)
(0.575547 0 0)
(0.577414 0 0)
(0.579279 0 0)
(0.581144 0 0)
(0.583008 0 0)
(0.58487 0 0)
(0.586732 0 0)
(0.588593 0 0)
(0.590453 0 0)
(0.592312 0 0)
(0.59417 0 0)
(0.596028 0 0)
(0.597884 0 0)
(0.599739 0 0)
(0.601593 0 0)
(0.603447 0 0)
(0.605299 0 0)
(0.60715 0 0)
(0.609 0 0)
(0.61085 0 0)
(0.612698 0 0)
(0.614545 0 0)
(0.616391 0 0)
(0.618237 0 0)
(0.620081 0 0)
(0.621924 0 0)
(0.623766 0 0)
(0.625607 0 0)
(0.627447 0 0)
(0.629286 0 0)
(0.631123 0 0)
(0.63296 0 0)
(0.634796 0 0)
(0.63663 0 0)
(0.638463 0 0)
(0.640295 0 0)
(0.642127 0 0)
(0.643956 0 0)
(0.645785 0 0)
(0.647613 0 0)
(0.649439 0 0)
(0.651265 0 0)
(0.653089 0 0)
(0.654911 0 0)
(0.656733 0 0)
(0.658554 0 0)
(0.660373 0 0)
(0.662191 0 0)
(0.664008 0 0)
(0.665823 0 0)
(0.667638 0 0)
(0.669451 0 0)
(0.671263 0 0)
(0.673073 0 0)
(0.674882 0 0)
(0.67669 0 0)
(0.678497 0 0)
(0.680302 0 0)
(0.682106 0 0)
(0.683909 0 0)
(0.68571 0 0)
(0.68751 0 0)
(0.689308 0 0)
(0.691106 0 0)
(0.692901 0 0)
(0.694696 0 0)
(0.696489 0 0)
(0.69828 0 0)
(0.700071 0 0)
(0.701859 0 0)
(0.703646 0 0)
(0.705432 0 0)
(0.707217 0 0)
(0.708999 0 0)
(0.710781 0 0)
(0.712561 0 0)
(0.714339 0 0)
(0.716116 0 0)
(0.717891 0 0)
(0.719664 0 0)
(0.721437 0 0)
(0.723207 0 0)
(0.724976 0 0)
(0.726743 0 0)
(0.728509 0 0)
(0.730273 0 0)
(0.732035 0 0)
(0.733796 0 0)
(0.735555 0 0)
(0.737313 0 0)
(0.739068 0 0)
(0.740822 0 0)
(0.742574 0 0)
(0.744325 0 0)
(0.746074 0 0)
(0.747821 0 0)
(0.749566 0 0)
(0.751309 0 0)
(0.753051 0 0)
(0.754789 0 0)
(0.756494 0 0)
(0.75699 0 0)
(0.719932 0 0)
(0.363848 0 0)
(-0.362649 0 0)
(-0.719702 0 0)
(-0.756979 0 0)
(-0.756491 0 0)
(-0.754787 0 0)
(-0.753048 0 0)
(-0.751307 0 0)
(-0.749563 0 0)
(-0.747818 0 0)
(-0.746071 0 0)
(-0.744323 0 0)
(-0.742572 0 0)
(-0.74082 0 0)
(-0.739066 0 0)
(-0.73731 0 0)
(-0.735553 0 0)
(-0.733794 0 0)
(-0.732033 0 0)
(-0.730271 0 0)
(-0.728507 0 0)
(-0.726741 0 0)
(-0.724974 0 0)
(-0.723205 0 0)
(-0.721434 0 0)
(-0.719662 0 0)
(-0.717888 0 0)
(-0.716113 0 0)
(-0.714337 0 0)
(-0.712558 0 0)
(-0.710778 0 0)
(-0.708997 0 0)
(-0.707214 0 0)
(-0.70543 0 0)
(-0.703644 0 0)
(-0.701857 0 0)
(-0.700068 0 0)
(-0.698278 0 0)
(-0.696487 0 0)
(-0.694694 0 0)
(-0.692899 0 0)
(-0.691103 0 0)
(-0.689306 0 0)
(-0.687508 0 0)
(-0.685708 0 0)
(-0.683907 0 0)
(-0.682104 0 0)
(-0.6803 0 0)
(-0.678495 0 0)
(-0.676688 0 0)
(-0.67488 0 0)
(-0.673071 0 0)
(-0.67126 0 0)
(-0.669449 0 0)
(-0.667636 0 0)
(-0.665821 0 0)
(-0.664006 0 0)
(-0.662189 0 0)
(-0.660371 0 0)
(-0.658552 0 0)
(-0.656731 0 0)
(-0.654909 0 0)
(-0.653087 0 0)
(-0.651262 0 0)
(-0.649437 0 0)
(-0.647611 0 0)
(-0.645783 0 0)
(-0.643954 0 0)
(-0.642125 0 0)
(-0.640293 0 0)
(-0.638461 0 0)
(-0.636628 0 0)
(-0.634794 0 0)
(-0.632958 0 0)
(-0.631121 0 0)
(-0.629284 0 0)
(-0.627445 0 0)
(-0.625605 0 0)
(-0.623764 0 0)
(-0.621922 0 0)
(-0.620079 0 0)
(-0.618235 0 0)
(-0.61639 0 0)
(-0.614543 0 0)
(-0.612696 0 0)
(-0.610848 0 0)
(-0.608999 0 0)
(-0.607148 0 0)
(-0.605297 0 0)
(-0.603445 0 0)
(-0.601591 0 0)
(-0.599737 0 0)
(-0.597882 0 0)
(-0.596026 0 0)
(-0.594169 0 0)
(-0.592311 0 0)
(-0.590452 0 0)
(-0.588592 0 0)
(-0.586731 0 0)
(-0.584869 0 0)
(-0.583006 0 0)
(-0.581142 0 0)
(-0.579278 0 0)
(-0.577412 0 0)
(-0.575546 0 0)
(-0.573678 0 0)
(-0.57181 0 0)
(-0.569941 0 0)
(-0.568071 0 0)
(-0.5662 0 0)
(-0.564329 0 0)
(-0.562456 0 0)
(-0.560583 0 0)
(-0.558709 0 0)
(-0.556834 0 0)
(-0.554958 0 0)
(-0.553081 0 0)
(-0.551203 0 0)
(-0.549325 0 0)
(-0.547446 0 0)
(-0.545566 0 0)
(-0.543685 0 0)
(-0.541803 0 0)
(-0.539921 0 0)
(-0.538038 0 0)
(-0.536154 0 0)
(-0.534269 0 0)
(-0.532384 0 0)
(-0.530497 0 0)
(-0.52861 0 0)
(-0.526722 0 0)
(-0.524834 0 0)
(-0.522945 0 0)
(-0.521055 0 0)
(-0.519164 0 0)
(-0.517272 0 0)
(-0.51538 0 0)
(-0.513487 0 0)
(-0.511593 0 0)
(-0.509699 0 0)
(-0.507804 0 0)
(-0.505908 0 0)
(-0.504012 0 0)
(-0.502114 0 0)
(-0.500216 0 0)
(-0.498318 0 0)
(-0.496419 0 0)
(-0.494519 0 0)
(-0.492618 0 0)
(-0.490717 0 0)
(-0.488815 0 0)
(-0.486912 0 0)
(-0.485009 0 0)
(-0.483105 0 0)
(-0.481201 0 0)
(-0.479295 0 0)
(-0.477389 0 0)
(-0.475483 0 0)
(-0.473576 0 0)
(-0.471668 0 0)
(-0.46976 0 0)
(-0.467851 0 0)
(-0.465941 0 0)
(-0.464031 0 0)
(-0.46212 0 0)
(-0.460209 0 0)
(-0.458297 0 0)
(-0.456384 0 0)
(-0.454471 0 0)
(-0.452557 0 0)
(-0.450643 0 0)
(-0.448728 0 0)
(-0.446812 0 0)
(-0.444896 0 0)
(-0.44298 0 0)
(-0.441062 0 0)
(-0.439145 0 0)
(-0.437226 0 0)
(-0.435307 0 0)
(-0.433388 0 0)
(-0.431468 0 0)
(-0.429547 0 0)
(-0.427626 0 0)
(-0.425705 0 0)
(-0.423783 0 0)
(-0.42186 0 0)
(-0.419937 0 0)
(-0.418013 0 0)
(-0.416089 0 0)
(-0.414164 0 0)
(-0.412239 0 0)
(-0.410313 0 0)
(-0.408387 0 0)
(-0.40646 0 0)
(-0.404533 0 0)
(-0.402605 0 0)
(-0.400677 0 0)
(-0.398748 0 0)
(-0.396819 0 0)
(-0.394889 0 0)
(-0.392959 0 0)
(-0.391028 0 0)
(-0.389097 0 0)
(-0.387166 0 0)
(-0.385234 0 0)
(-0.383301 0 0)
(-0.381368 0 0)
(-0.379435 0 0)
(-0.377501 0 0)
(-0.375566 0 0)
(-0.373632 0 0)
(-0.371696 0 0)
(-0.369761 0 0)
(-0.367825 0 0)
(-0.365888 0 0)
(-0.363951 0 0)
(-0.362014 0 0)
(-0.360076 0 0)
(-0.358138 0 0)
(-0.356199 0 0)
(-0.35426 0 0)
(-0.352321 0 0)
(-0.350381 0 0)
(-0.348441 0 0)
(-0.3465 0 0)
(-0.344559 0 0)
(-0.342617 0 0)
(-0.340676 0 0)
(-0.338733 0 0)
(-0.336791 0 0)
(-0.334848 0 0)
(-0.332904 0 0)
(-0.33096 0 0)
(-0.329016 0 0)
(-0.327072 0 0)
(-0.325127 0 0)
(-0.323181 0 0)
(-0.321236 0 0)
(-0.31929 0 0)
(-0.317343 0 0)
(-0.315397 0 0)
(-0.31345 0 0)
(-0.311502 0 0)
(-0.309554 0 0)
(-0.307606 0 0)
(-0.305658 0 0)
(-0.303709 0 0)
(-0.30176 0 0)
(-0.29981 0 0)
(-0.29786 0 0)
(-0.29591 0 0)
(-0.29396 0 0)
(-0.292009 0 0)
(-0.290058 0 0)
(-0.288106 0 0)
(-0.286154 0 0)
(-0.284202 0 0)
(-0.28225 0 0)
(-0.280297 0 0)
(-0.278344 0 0)
(-0.276391 0 0)
(-0.274437 0 0)
(-0.272483 0 0)
(-0.270529 0 0)
(-0.268575 0 0)
(-0.26662 0 0)
(-0.264665 0 0)
(-0.262709 0 0)
(-0.260753 0 0)
(-0.258798 0 0)
(-0.256841 0 0)
(-0.254885 0 0)
(-0.252928 0 0)
(-0.250971 0 0)
(-0.249014 0 0)
(-0.247056 0 0)
(-0.245098 0 0)
(-0.24314 0 0)
(-0.241181 0 0)
(-0.239223 0 0)
(-0.237264 0 0)
(-0.235305 0 0)
(-0.233345 0 0)
(-0.231386 0 0)
(-0.229426 0 0)
(-0.227466 0 0)
(-0.225505 0 0)
(-0.223544 0 0)
(-0.221584 0 0)
(-0.219622 0 0)
(-0.217661 0 0)
(-0.2157 0 0)
(-0.213738 0 0)
(-0.211776 0 0)
(-0.209813 0 0)
(-0.207851 0 0)
(-0.205888 0 0)
(-0.203925 0 0)
(-0.201962 0 0)
(-0.199999 0 0)
(-0.198035 0 0)
(-0.196072 0 0)
(-0.194108 0 0)
(-0.192143 0 0)
(-0.190179 0 0)
(-0.188214 0 0)
(-0.18625 0 0)
(-0.184285 0 0)
(-0.18232 0 0)
(-0.180354 0 0)
(-0.178389 0 0)
(-0.176423 0 0)
(-0.174457 0 0)
(-0.172491 0 0)
(-0.170525 0 0)
(-0.168558 0 0)
(-0.166592 0 0)
(-0.164625 0 0)
(-0.162658 0 0)
(-0.160691 0 0)
(-0.158724 0 0)
(-0.156756 0 0)
(-0.154788 0 0)
(-0.152821 0 0)
(-0.150853 0 0)
(-0.148885 0 0)
(-0.146916 0 0)
(-0.144948 0 0)
(-0.14298 0 0)
(-0.141011 0 0)
(-0.139042 0 0)
(-0.137073 0 0)
(-0.135104 0 0)
(-0.133135 0 0)
(-0.131165 0 0)
(-0.129196 0 0)
(-0.127226 0 0)
(-0.125256 0 0)
(-0.123286 0 0)
(-0.121316 0 0)
(-0.119346 0 0)
(-0.117376 0 0)
(-0.115406 0 0)
(-0.113435 0 0)
(-0.111464 0 0)
(-0.109494 0 0)
(-0.107523 0 0)
(-0.105552 0 0)
(-0.103581 0 0)
(-0.101609 0 0)
(-0.0996382 0 0)
(-0.0976668 0 0)
(-0.0956953 0 0)
(-0.0937238 0 0)
(-0.0917521 0 0)
(-0.0897803 0 0)
(-0.0878084 0 0)
(-0.0858365 0 0)
(-0.0838644 0 0)
(-0.0818923 0 0)
(-0.0799201 0 0)
(-0.0779478 0 0)
(-0.0759755 0 0)
(-0.074003 0 0)
(-0.0720305 0 0)
(-0.0700579 0 0)
(-0.0680852 0 0)
(-0.0661125 0 0)
(-0.0641397 0 0)
(-0.0621669 0 0)
(-0.0601939 0 0)
(-0.0582209 0 0)
(-0.0562479 0 0)
(-0.0542748 0 0)
(-0.0523016 0 0)
(-0.0503284 0 0)
(-0.0483552 0 0)
(-0.0463819 0 0)
(-0.0444085 0 0)
(-0.0424351 0 0)
(-0.0404617 0 0)
(-0.0384882 0 0)
(-0.0365147 0 0)
(-0.0345411 0 0)
(-0.0325675 0 0)
(-0.0305939 0 0)
(-0.0286202 0 0)
(-0.0266466 0 0)
(-0.0246728 0 0)
(-0.0226991 0 0)
(-0.0207253 0 0)
(-0.0187516 0 0)
(-0.0167778 0 0)
(-0.014804 0 0)
(-0.0128301 0 0)
(-0.0108563 0 0)
(-0.00888243 0 0)
(-0.00690856 0 0)
(-0.00493469 0 0)
(-0.00296082 0 0)
(-0.00098694 0 0)
)
;

boundaryField
{
    left
    {
        type            fixedValue;
        value           uniform (0 0 0);
    }
    right
    {
        type            fixedValue;
        value           uniform (0 0 0);
    }
    frontBackUpDown
    {
        type            empty;
    }
}


// ************************************************************************* //
