/*--------------------------------*- C++ -*----------------------------------*\
| =========                 |                                                 |
| \\      /  F ield         | OpenFOAM: The Open Source CFD Toolbox           |
|  \\    /   O peration     | Version:  2412                                  |
|   \\  /    A nd           | Website:  www.openfoam.com                      |
|    \\/     M anipulation  |                                                 |
\*---------------------------------------------------------------------------*/
FoamFile
{
    version     2.0;
    format      ascii;
    arch        "LSB;label=32;scalar=64";
    class       volVectorField;
    location    "0.96";
    object      U_0_0_0;
}
// * * * * * * * * * * * * * * * * * * * * * * * * * * * * * * * * * * * * * //

dimensions      [0 1 -1 0 0 0 0];

internalField   nonuniform List<vector> 
800
(
(0.000979984 0 0)
(0.00293997 0 0)
(0.00489994 0 0)
(0.00685992 0 0)
(0.00881989 0 0)
(0.0107798 0 0)
(0.0127398 0 0)
(0.0146997 0 0)
(0.0166597 0 0)
(0.0186196 0 0)
(0.0205794 0 0)
(0.0225393 0 0)
(0.0244992 0 0)
(0.026459 0 0)
(0.0284188 0 0)
(0.0303785 0 0)
(0.0323383 0 0)
(0.034298 0 0)
(0.0362577 0 0)
(0.0382173 0 0)
(0.0401769 0 0)
(0.0421364 0 0)
(0.044096 0 0)
(0.0460554 0 0)
(0.0480149 0 0)
(0.0499742 0 0)
(0.0519336 0 0)
(0.0538929 0 0)
(0.0558521 0 0)
(0.0578113 0 0)
(0.0597704 0 0)
(0.0617294 0 0)
(0.0636884 0 0)
(0.0656474 0 0)
(0.0676062 0 0)
(0.069565 0 0)
(0.0715238 0 0)
(0.0734824 0 0)
(0.075441 0 0)
(0.0773995 0 0)
(0.079358 0 0)
(0.0813163 0 0)
(0.0832746 0 0)
(0.0852328 0 0)
(0.0871909 0 0)
(0.0891489 0 0)
(0.0911069 0 0)
(0.0930647 0 0)
(0.0950225 0 0)
(0.0969801 0 0)
(0.0989377 0 0)
(0.100895 0 0)
(0.102853 0 0)
(0.10481 0 0)
(0.106767 0 0)
(0.108724 0 0)
(0.110681 0 0)
(0.112638 0 0)
(0.114595 0 0)
(0.116551 0 0)
(0.118508 0 0)
(0.120464 0 0)
(0.12242 0 0)
(0.124376 0 0)
(0.126332 0 0)
(0.128288 0 0)
(0.130244 0 0)
(0.1322 0 0)
(0.134155 0 0)
(0.13611 0 0)
(0.138066 0 0)
(0.140021 0 0)
(0.141976 0 0)
(0.14393 0 0)
(0.145885 0 0)
(0.14784 0 0)
(0.149794 0 0)
(0.151748 0 0)
(0.153702 0 0)
(0.155656 0 0)
(0.15761 0 0)
(0.159563 0 0)
(0.161517 0 0)
(0.16347 0 0)
(0.165423 0 0)
(0.167376 0 0)
(0.169329 0 0)
(0.171281 0 0)
(0.173234 0 0)
(0.175186 0 0)
(0.177138 0 0)
(0.17909 0 0)
(0.181042 0 0)
(0.182993 0 0)
(0.184945 0 0)
(0.186896 0 0)
(0.188847 0 0)
(0.190797 0 0)
(0.192748 0 0)
(0.194698 0 0)
(0.196648 0 0)
(0.198598 0 0)
(0.200548 0 0)
(0.202498 0 0)
(0.204447 0 0)
(0.206396 0 0)
(0.208345 0 0)
(0.210294 0 0)
(0.212242 0 0)
(0.21419 0 0)
(0.216138 0 0)
(0.218086 0 0)
(0.220034 0 0)
(0.221981 0 0)
(0.223928 0 0)
(0.225875 0 0)
(0.227822 0 0)
(0.229768 0 0)
(0.231714 0 0)
(0.23366 0 0)
(0.235606 0 0)
(0.237552 0 0)
(0.239497 0 0)
(0.241442 0 0)
(0.243386 0 0)
(0.245331 0 0)
(0.247275 0 0)
(0.249219 0 0)
(0.251163 0 0)
(0.253106 0 0)
(0.255049 0 0)
(0.256992 0 0)
(0.258935 0 0)
(0.260877 0 0)
(0.262819 0 0)
(0.264761 0 0)
(0.266702 0 0)
(0.268643 0 0)
(0.270584 0 0)
(0.272525 0 0)
(0.274465 0 0)
(0.276405 0 0)
(0.278345 0 0)
(0.280284 0 0)
(0.282223 0 0)
(0.284162 0 0)
(0.286101 0 0)
(0.288039 0 0)
(0.289977 0 0)
(0.291914 0 0)
(0.293852 0 0)
(0.295789 0 0)
(0.297725 0 0)
(0.299662 0 0)
(0.301598 0 0)
(0.303533 0 0)
(0.305469 0 0)
(0.307404 0 0)
(0.309338 0 0)
(0.311272 0 0)
(0.313206 0 0)
(0.31514 0 0)
(0.317073 0 0)
(0.319006 0 0)
(0.320939 0 0)
(0.322871 0 0)
(0.324803 0 0)
(0.326734 0 0)
(0.328665 0 0)
(0.330596 0 0)
(0.332527 0 0)
(0.334457 0 0)
(0.336386 0 0)
(0.338316 0 0)
(0.340244 0 0)
(0.342173 0 0)
(0.344101 0 0)
(0.346029 0 0)
(0.347956 0 0)
(0.349883 0 0)
(0.35181 0 0)
(0.353736 0 0)
(0.355662 0 0)
(0.357587 0 0)
(0.359512 0 0)
(0.361436 0 0)
(0.36336 0 0)
(0.365284 0 0)
(0.367207 0 0)
(0.36913 0 0)
(0.371053 0 0)
(0.372975 0 0)
(0.374896 0 0)
(0.376817 0 0)
(0.378738 0 0)
(0.380658 0 0)
(0.382578 0 0)
(0.384497 0 0)
(0.386416 0 0)
(0.388335 0 0)
(0.390253 0 0)
(0.39217 0 0)
(0.394087 0 0)
(0.396004 0 0)
(0.39792 0 0)
(0.399836 0 0)
(0.401751 0 0)
(0.403666 0 0)
(0.40558 0 0)
(0.407494 0 0)
(0.409407 0 0)
(0.41132 0 0)
(0.413232 0 0)
(0.415144 0 0)
(0.417055 0 0)
(0.418966 0 0)
(0.420876 0 0)
(0.422786 0 0)
(0.424695 0 0)
(0.426604 0 0)
(0.428512 0 0)
(0.43042 0 0)
(0.432327 0 0)
(0.434233 0 0)
(0.436139 0 0)
(0.438045 0 0)
(0.43995 0 0)
(0.441854 0 0)
(0.443758 0 0)
(0.445662 0 0)
(0.447564 0 0)
(0.449467 0 0)
(0.451368 0 0)
(0.453269 0 0)
(0.45517 0 0)
(0.45707 0 0)
(0.458969 0 0)
(0.460868 0 0)
(0.462766 0 0)
(0.464664 0 0)
(0.466561 0 0)
(0.468457 0 0)
(0.470353 0 0)
(0.472248 0 0)
(0.474142 0 0)
(0.476036 0 0)
(0.47793 0 0)
(0.479822 0 0)
(0.481715 0 0)
(0.483606 0 0)
(0.485497 0 0)
(0.487387 0 0)
(0.489277 0 0)
(0.491165 0 0)
(0.493054 0 0)
(0.494941 0 0)
(0.496828 0 0)
(0.498714 0 0)
(0.5006 0 0)
(0.502485 0 0)
(0.504369 0 0)
(0.506253 0 0)
(0.508135 0 0)
(0.510018 0 0)
(0.511899 0 0)
(0.51378 0 0)
(0.51566 0 0)
(0.517539 0 0)
(0.519418 0 0)
(0.521296 0 0)
(0.523173 0 0)
(0.52505 0 0)
(0.526925 0 0)
(0.5288 0 0)
(0.530675 0 0)
(0.532548 0 0)
(0.534421 0 0)
(0.536293 0 0)
(0.538164 0 0)
(0.540035 0 0)
(0.541904 0 0)
(0.543773 0 0)
(0.545641 0 0)
(0.547509 0 0)
(0.549375 0 0)
(0.551241 0 0)
(0.553106 0 0)
(0.55497 0 0)
(0.556833 0 0)
(0.558696 0 0)
(0.560558 0 0)
(0.562419 0 0)
(0.564279 0 0)
(0.566138 0 0)
(0.567996 0 0)
(0.569854 0 0)
(0.57171 0 0)
(0.573566 0 0)
(0.575421 0 0)
(0.577275 0 0)
(0.579128 0 0)
(0.58098 0 0)
(0.582832 0 0)
(0.584682 0 0)
(0.586532 0 0)
(0.58838 0 0)
(0.590228 0 0)
(0.592075 0 0)
(0.593921 0 0)
(0.595766 0 0)
(0.59761 0 0)
(0.599453 0 0)
(0.601295 0 0)
(0.603136 0 0)
(0.604976 0 0)
(0.606816 0 0)
(0.608654 0 0)
(0.610491 0 0)
(0.612327 0 0)
(0.614163 0 0)
(0.615997 0 0)
(0.61783 0 0)
(0.619662 0 0)
(0.621494 0 0)
(0.623324 0 0)
(0.625153 0 0)
(0.626981 0 0)
(0.628808 0 0)
(0.630634 0 0)
(0.632459 0 0)
(0.634283 0 0)
(0.636105 0 0)
(0.637927 0 0)
(0.639747 0 0)
(0.641567 0 0)
(0.643385 0 0)
(0.645202 0 0)
(0.647018 0 0)
(0.648833 0 0)
(0.650647 0 0)
(0.652459 0 0)
(0.654271 0 0)
(0.656081 0 0)
(0.65789 0 0)
(0.659698 0 0)
(0.661505 0 0)
(0.66331 0 0)
(0.665115 0 0)
(0.666918 0 0)
(0.668719 0 0)
(0.67052 0 0)
(0.672319 0 0)
(0.674117 0 0)
(0.675914 0 0)
(0.67771 0 0)
(0.679504 0 0)
(0.681297 0 0)
(0.683088 0 0)
(0.684879 0 0)
(0.686668 0 0)
(0.688455 0 0)
(0.690241 0 0)
(0.692026 0 0)
(0.69381 0 0)
(0.695592 0 0)
(0.697373 0 0)
(0.699152 0 0)
(0.70093 0 0)
(0.702707 0 0)
(0.704482 0 0)
(0.706256 0 0)
(0.708028 0 0)
(0.709799 0 0)
(0.711568 0 0)
(0.713336 0 0)
(0.715102 0 0)
(0.716867 0 0)
(0.71863 0 0)
(0.720392 0 0)
(0.722152 0 0)
(0.723911 0 0)
(0.725668 0 0)
(0.727423 0 0)
(0.729177 0 0)
(0.73093 0 0)
(0.73268 0 0)
(0.734429 0 0)
(0.736177 0 0)
(0.737923 0 0)
(0.739667 0 0)
(0.741409 0 0)
(0.74315 0 0)
(0.744889 0 0)
(0.746626 0 0)
(0.748361 0 0)
(0.750094 0 0)
(0.751783 0 0)
(0.752095 0 0)
(0.713719 0 0)
(0.359352 0 0)
(-0.358157 0 0)
(-0.713484 0 0)
(-0.752083 0 0)
(-0.751781 0 0)
(-0.750091 0 0)
(-0.748359 0 0)
(-0.746623 0 0)
(-0.744886 0 0)
(-0.743147 0 0)
(-0.741407 0 0)
(-0.739664 0 0)
(-0.73792 0 0)
(-0.736174 0 0)
(-0.734427 0 0)
(-0.732678 0 0)
(-0.730927 0 0)
(-0.729175 0 0)
(-0.727421 0 0)
(-0.725666 0 0)
(-0.723909 0 0)
(-0.72215 0 0)
(-0.72039 0 0)
(-0.718628 0 0)
(-0.716865 0 0)
(-0.7151 0 0)
(-0.713334 0 0)
(-0.711566 0 0)
(-0.709796 0 0)
(-0.708026 0 0)
(-0.706253 0 0)
(-0.70448 0 0)
(-0.702705 0 0)
(-0.700928 0 0)
(-0.69915 0 0)
(-0.697371 0 0)
(-0.69559 0 0)
(-0.693808 0 0)
(-0.692024 0 0)
(-0.690239 0 0)
(-0.688453 0 0)
(-0.686665 0 0)
(-0.684876 0 0)
(-0.683086 0 0)
(-0.681295 0 0)
(-0.679502 0 0)
(-0.677707 0 0)
(-0.675912 0 0)
(-0.674115 0 0)
(-0.672317 0 0)
(-0.670518 0 0)
(-0.668717 0 0)
(-0.666915 0 0)
(-0.665112 0 0)
(-0.663308 0 0)
(-0.661503 0 0)
(-0.659696 0 0)
(-0.657888 0 0)
(-0.656079 0 0)
(-0.654269 0 0)
(-0.652457 0 0)
(-0.650645 0 0)
(-0.648831 0 0)
(-0.647016 0 0)
(-0.6452 0 0)
(-0.643383 0 0)
(-0.641565 0 0)
(-0.639745 0 0)
(-0.637925 0 0)
(-0.636103 0 0)
(-0.634281 0 0)
(-0.632457 0 0)
(-0.630632 0 0)
(-0.628806 0 0)
(-0.626979 0 0)
(-0.625151 0 0)
(-0.623322 0 0)
(-0.621492 0 0)
(-0.61966 0 0)
(-0.617828 0 0)
(-0.615995 0 0)
(-0.614161 0 0)
(-0.612326 0 0)
(-0.610489 0 0)
(-0.608652 0 0)
(-0.606814 0 0)
(-0.604975 0 0)
(-0.603134 0 0)
(-0.601293 0 0)
(-0.599451 0 0)
(-0.597608 0 0)
(-0.595764 0 0)
(-0.593919 0 0)
(-0.592073 0 0)
(-0.590226 0 0)
(-0.588379 0 0)
(-0.58653 0 0)
(-0.58468 0 0)
(-0.58283 0 0)
(-0.580979 0 0)
(-0.579126 0 0)
(-0.577273 0 0)
(-0.575419 0 0)
(-0.573564 0 0)
(-0.571709 0 0)
(-0.569852 0 0)
(-0.567994 0 0)
(-0.566136 0 0)
(-0.564277 0 0)
(-0.562417 0 0)
(-0.560556 0 0)
(-0.558694 0 0)
(-0.556832 0 0)
(-0.554969 0 0)
(-0.553104 0 0)
(-0.551239 0 0)
(-0.549374 0 0)
(-0.547507 0 0)
(-0.54564 0 0)
(-0.543772 0 0)
(-0.541903 0 0)
(-0.540033 0 0)
(-0.538163 0 0)
(-0.536291 0 0)
(-0.534419 0 0)
(-0.532547 0 0)
(-0.530673 0 0)
(-0.528799 0 0)
(-0.526924 0 0)
(-0.525048 0 0)
(-0.523172 0 0)
(-0.521294 0 0)
(-0.519417 0 0)
(-0.517538 0 0)
(-0.515659 0 0)
(-0.513778 0 0)
(-0.511898 0 0)
(-0.510016 0 0)
(-0.508134 0 0)
(-0.506251 0 0)
(-0.504368 0 0)
(-0.502484 0 0)
(-0.500599 0 0)
(-0.498713 0 0)
(-0.496827 0 0)
(-0.49494 0 0)
(-0.493052 0 0)
(-0.491164 0 0)
(-0.489275 0 0)
(-0.487386 0 0)
(-0.485496 0 0)
(-0.483605 0 0)
(-0.481713 0 0)
(-0.479821 0 0)
(-0.477929 0 0)
(-0.476035 0 0)
(-0.474141 0 0)
(-0.472247 0 0)
(-0.470352 0 0)
(-0.468456 0 0)
(-0.466559 0 0)
(-0.464662 0 0)
(-0.462765 0 0)
(-0.460867 0 0)
(-0.458968 0 0)
(-0.457069 0 0)
(-0.455169 0 0)
(-0.453268 0 0)
(-0.451367 0 0)
(-0.449465 0 0)
(-0.447563 0 0)
(-0.44566 0 0)
(-0.443757 0 0)
(-0.441853 0 0)
(-0.439949 0 0)
(-0.438044 0 0)
(-0.436138 0 0)
(-0.434232 0 0)
(-0.432326 0 0)
(-0.430419 0 0)
(-0.428511 0 0)
(-0.426603 0 0)
(-0.424694 0 0)
(-0.422785 0 0)
(-0.420875 0 0)
(-0.418965 0 0)
(-0.417054 0 0)
(-0.415143 0 0)
(-0.413231 0 0)
(-0.411319 0 0)
(-0.409406 0 0)
(-0.407493 0 0)
(-0.405579 0 0)
(-0.403665 0 0)
(-0.40175 0 0)
(-0.399835 0 0)
(-0.397919 0 0)
(-0.396003 0 0)
(-0.394087 0 0)
(-0.39217 0 0)
(-0.390252 0 0)
(-0.388334 0 0)
(-0.386416 0 0)
(-0.384497 0 0)
(-0.382577 0 0)
(-0.380658 0 0)
(-0.378737 0 0)
(-0.376817 0 0)
(-0.374895 0 0)
(-0.372974 0 0)
(-0.371052 0 0)
(-0.36913 0 0)
(-0.367207 0 0)
(-0.365283 0 0)
(-0.36336 0 0)
(-0.361436 0 0)
(-0.359511 0 0)
(-0.357586 0 0)
(-0.355661 0 0)
(-0.353735 0 0)
(-0.351809 0 0)
(-0.349882 0 0)
(-0.347955 0 0)
(-0.346028 0 0)
(-0.3441 0 0)
(-0.342172 0 0)
(-0.340244 0 0)
(-0.338315 0 0)
(-0.336386 0 0)
(-0.334456 0 0)
(-0.332526 0 0)
(-0.330596 0 0)
(-0.328665 0 0)
(-0.326734 0 0)
(-0.324802 0 0)
(-0.32287 0 0)
(-0.320938 0 0)
(-0.319006 0 0)
(-0.317073 0 0)
(-0.315139 0 0)
(-0.313206 0 0)
(-0.311272 0 0)
(-0.309338 0 0)
(-0.307403 0 0)
(-0.305468 0 0)
(-0.303533 0 0)
(-0.301597 0 0)
(-0.299661 0 0)
(-0.297725 0 0)
(-0.295788 0 0)
(-0.293851 0 0)
(-0.291914 0 0)
(-0.289976 0 0)
(-0.288038 0 0)
(-0.2861 0 0)
(-0.284162 0 0)
(-0.282223 0 0)
(-0.280284 0 0)
(-0.278344 0 0)
(-0.276405 0 0)
(-0.274465 0 0)
(-0.272524 0 0)
(-0.270584 0 0)
(-0.268643 0 0)
(-0.266702 0 0)
(-0.26476 0 0)
(-0.262818 0 0)
(-0.260876 0 0)
(-0.258934 0 0)
(-0.256992 0 0)
(-0.255049 0 0)
(-0.253106 0 0)
(-0.251162 0 0)
(-0.249219 0 0)
(-0.247275 0 0)
(-0.24533 0 0)
(-0.243386 0 0)
(-0.241441 0 0)
(-0.239496 0 0)
(-0.237551 0 0)
(-0.235606 0 0)
(-0.23366 0 0)
(-0.231714 0 0)
(-0.229768 0 0)
(-0.227822 0 0)
(-0.225875 0 0)
(-0.223928 0 0)
(-0.221981 0 0)
(-0.220034 0 0)
(-0.218086 0 0)
(-0.216138 0 0)
(-0.21419 0 0)
(-0.212242 0 0)
(-0.210293 0 0)
(-0.208345 0 0)
(-0.206396 0 0)
(-0.204447 0 0)
(-0.202497 0 0)
(-0.200548 0 0)
(-0.198598 0 0)
(-0.196648 0 0)
(-0.194698 0 0)
(-0.192748 0 0)
(-0.190797 0 0)
(-0.188846 0 0)
(-0.186895 0 0)
(-0.184944 0 0)
(-0.182993 0 0)
(-0.181042 0 0)
(-0.17909 0 0)
(-0.177138 0 0)
(-0.175186 0 0)
(-0.173234 0 0)
(-0.171281 0 0)
(-0.169329 0 0)
(-0.167376 0 0)
(-0.165423 0 0)
(-0.16347 0 0)
(-0.161517 0 0)
(-0.159563 0 0)
(-0.15761 0 0)
(-0.155656 0 0)
(-0.153702 0 0)
(-0.151748 0 0)
(-0.149794 0 0)
(-0.147839 0 0)
(-0.145885 0 0)
(-0.14393 0 0)
(-0.141976 0 0)
(-0.140021 0 0)
(-0.138066 0 0)
(-0.13611 0 0)
(-0.134155 0 0)
(-0.1322 0 0)
(-0.130244 0 0)
(-0.128288 0 0)
(-0.126332 0 0)
(-0.124376 0 0)
(-0.12242 0 0)
(-0.120464 0 0)
(-0.118508 0 0)
(-0.116551 0 0)
(-0.114594 0 0)
(-0.112638 0 0)
(-0.110681 0 0)
(-0.108724 0 0)
(-0.106767 0 0)
(-0.10481 0 0)
(-0.102852 0 0)
(-0.100895 0 0)
(-0.0989376 0 0)
(-0.0969801 0 0)
(-0.0950224 0 0)
(-0.0930647 0 0)
(-0.0911068 0 0)
(-0.0891489 0 0)
(-0.0871909 0 0)
(-0.0852328 0 0)
(-0.0832746 0 0)
(-0.0813163 0 0)
(-0.0793579 0 0)
(-0.0773995 0 0)
(-0.075441 0 0)
(-0.0734824 0 0)
(-0.0715237 0 0)
(-0.069565 0 0)
(-0.0676062 0 0)
(-0.0656473 0 0)
(-0.0636884 0 0)
(-0.0617294 0 0)
(-0.0597704 0 0)
(-0.0578112 0 0)
(-0.0558521 0 0)
(-0.0538928 0 0)
(-0.0519336 0 0)
(-0.0499742 0 0)
(-0.0480149 0 0)
(-0.0460554 0 0)
(-0.044096 0 0)
(-0.0421364 0 0)
(-0.0401769 0 0)
(-0.0382173 0 0)
(-0.0362577 0 0)
(-0.034298 0 0)
(-0.0323383 0 0)
(-0.0303785 0 0)
(-0.0284188 0 0)
(-0.026459 0 0)
(-0.0244992 0 0)
(-0.0225393 0 0)
(-0.0205794 0 0)
(-0.0186196 0 0)
(-0.0166597 0 0)
(-0.0146997 0 0)
(-0.0127398 0 0)
(-0.0107799 0 0)
(-0.00881989 0 0)
(-0.00685993 0 0)
(-0.00489995 0 0)
(-0.00293997 0 0)
(-0.000979991 0 0)
)
;

boundaryField
{
    left
    {
        type            fixedValue;
        value           uniform (0 0 0);
    }
    right
    {
        type            fixedValue;
        value           uniform (0 0 0);
    }
    frontBackUpDown
    {
        type            empty;
    }
}


// ************************************************************************* //
