/*--------------------------------*- C++ -*----------------------------------*\
| =========                 |                                                 |
| \\      /  F ield         | OpenFOAM: The Open Source CFD Toolbox           |
|  \\    /   O peration     | Version:  2412                                  |
|   \\  /    A nd           | Website:  www.openfoam.com                      |
|    \\/     M anipulation  |                                                 |
\*---------------------------------------------------------------------------*/
FoamFile
{
    version     2.0;
    format      ascii;
    arch        "LSB;label=32;scalar=64";
    class       volScalarField;
    location    "8.25";
    object      p;
}
// * * * * * * * * * * * * * * * * * * * * * * * * * * * * * * * * * * * * * //

dimensions      [0 2 -2 0 0 0 0];

internalField   nonuniform List<scalar> 
2200
(
0.492432
0.492587
0.49397
0.498874
0.511073
0.537219
0.585604
0.668859
0.803608
1.00408
1.23025
1.41922
1.54926
1.63258
1.68117
1.70762
1.72079
1.72635
1.72844
1.7287
0.4872
0.487492
0.489156
0.494251
0.506779
0.533576
0.583371
0.668211
0.802216
1.00174
1.2282
1.41954
1.55083
1.63329
1.68138
1.70691
1.71936
1.72434
1.72587
1.72595
0.478258
0.478484
0.480613
0.486625
0.500346
0.527596
0.578084
0.664132
0.799393
1.00148
1.23084
1.42462
1.55638
1.63794
1.68541
1.71012
1.72109
1.7255
1.72669
1.72686
0.464906
0.465014
0.467355
0.47409
0.488882
0.517713
0.569105
0.656478
0.794765
1.00266
1.23553
1.431
1.56495
1.64741
1.69346
1.71637
1.72732
1.73182
1.73332
1.73369
0.445694
0.44549
0.447673
0.454426
0.469951
0.50058
0.555564
0.646045
0.788001
1.00197
1.24117
1.44184
1.57707
1.65892
1.70491
1.72879
1.7405
1.7457
1.74758
1.74794
0.422407
0.422487
0.424115
0.429157
0.444011
0.475494
0.533077
0.628867
0.77844
1.00056
1.24706
1.45285
1.59093
1.67556
1.72339
1.74818
1.76066
1.76692
1.76933
1.7697
0.390213
0.390777
0.392488
0.396777
0.409709
0.440758
0.500006
0.600734
0.759427
0.994689
1.25301
1.46675
1.60916
1.6972
1.74697
1.77433
1.7889
1.79649
1.7996
1.79989
0.339204
0.3395
0.341426
0.347096
0.361865
0.393796
0.455381
0.5609
0.730013
0.982922
1.25844
1.48256
1.63158
1.72583
1.78112
1.81191
1.82838
1.83614
1.83923
1.83968
0.276295
0.275873
0.278187
0.285567
0.301682
0.33365
0.39786
0.511366
0.694048
0.966069
1.26194
1.50388
1.66679
1.76829
1.82898
1.8633
1.87994
1.88656
1.88988
1.8909
0.210006
0.209077
0.211741
0.221272
0.239387
0.273097
0.338859
0.458327
0.654136
0.946844
1.26848
1.53523
1.7166
1.83216
1.89889
1.93556
1.95317
1.95985
1.96363
1.96521
0.143991
0.143011
0.145656
0.15628
0.176807
0.214343
0.286235
0.413408
0.619159
0.930908
1.28345
1.58538
1.79474
1.92443
2.00032
2.04113
2.05973
2.06725
2.07082
2.0724
0.0677584
0.0671843
0.0711872
0.0830642
0.106984
0.153022
0.23474
0.372848
0.592682
0.928617
1.32053
1.66325
1.89949
2.04717
2.13182
2.17484
2.19471
2.20344
2.20652
2.20777
-0.0294686
-0.0298739
-0.0271158
-0.0160779
0.0126941
0.0695885
0.16805
0.323868
0.571684
0.94682
1.38296
1.76439
2.02733
2.18994
2.27868
2.32238
2.34461
2.3554
2.35829
2.35937
-0.159784
-0.159522
-0.155031
-0.144385
-0.113798
-0.0484368
0.0661137
0.252239
0.546379
0.977866
1.46918
1.88863
2.16877
2.33873
2.4296
2.47534
2.5018
2.51525
2.51894
2.5201
-0.328241
-0.328633
-0.324603
-0.312889
-0.278115
-0.202861
-0.0709973
0.149404
0.500918
1.00526
1.56253
2.01621
2.31252
2.49127
2.59053
2.64214
2.6719
2.68707
2.69161
2.69296
-0.536504
-0.536448
-0.531547
-0.520456
-0.487659
-0.407109
-0.254848
0.00637232
0.422673
1.00932
1.64344
2.14481
2.46689
2.66059
2.77404
2.83551
2.86542
2.88121
2.88702
2.88852
-0.783366
-0.783651
-0.777532
-0.760067
-0.718963
-0.635148
-0.47106
-0.177238
0.302628
0.978598
1.70412
2.27313
2.63517
2.85473
2.98597
3.059
3.09041
3.10614
3.11277
3.11398
-1.07401
-1.0741
-1.06786
-1.04805
-0.997818
-0.898816
-0.715661
-0.388283
0.152857
0.91967
1.74833
2.40684
2.82896
3.08224
3.23374
3.31516
3.34872
3.36408
3.37163
3.37337
-1.42343
-1.42259
-1.41537
-1.3934
-1.33598
-1.22316
-1.01063
-0.631908
-0.0150671
0.8541
1.80173
2.56282
3.05657
3.35003
3.51499
3.59986
3.63762
3.6543
3.66196
3.66273
-1.83518
-1.83495
-1.82738
-1.79967
-1.7312
-1.59821
-1.34634
-0.905078
-0.189165
0.809342
1.89474
2.7621
3.32373
3.6569
3.83256
3.9205
3.96343
3.9825
3.99172
3.99343
-2.34299
-2.34119
-2.33212
-2.30202
-2.21925
-2.05034
-1.73515
-1.20281
-0.347413
0.812018
2.05066
3.02876
3.6527
4.01008
4.1936
4.28457
4.33168
4.35294
4.36323
4.36472
-2.95129
-2.95
-2.93928
-2.9042
-2.80781
-2.59574
-2.19883
-1.53206
-0.49081
0.868329
2.2844
3.36425
4.03442
4.41312
4.59952
4.6919
4.74156
4.76319
4.77459
4.77565
-3.71767
-3.71308
-3.69325
-3.63994
-3.51005
-3.2372
-2.72982
-1.8925
-0.627328
0.963244
2.57559
3.75969
4.46237
4.85157
5.04598
5.14017
5.18984
5.21296
5.22513
5.22585
-4.65699
-4.65151
-4.62801
-4.55284
-4.36442
-3.98908
-3.33298
-2.28756
-0.775777
1.06615
2.88917
4.18911
4.93564
5.3242
5.52485
5.62311
5.66915
5.69427
5.70866
5.70915
-5.9082
-5.88364
-5.81351
-5.66153
-5.37186
-4.8566
-4.01386
-2.71806
-0.934788
1.17436
3.22755
4.65052
5.4311
5.83475
6.03662
6.12289
6.15724
6.17777
6.19139
6.19285
-7.49596
-7.44132
-7.29819
-7.01659
-6.54458
-5.81718
-4.72699
-3.13897
-1.06541
1.32628
3.60916
5.15776
5.99395
6.39928
6.57772
6.64618
6.66237
6.66855
6.67098
6.67577
-9.4713
-9.2937
-8.95402
-8.46886
-7.77666
-6.79387
-5.41793
-3.5096
-1.12146
1.60154
4.16209
5.85993
6.77244
7.18558
7.33152
7.38989
7.40333
7.40129
7.38834
7.399
-11.679
-11.211
-10.6399
-9.95669
-9.02507
-7.76191
-6.06063
-3.79711
-1.04438
2.06346
4.96416
6.83661
7.80117
8.23866
8.42971
8.49898
8.53103
8.55505
8.56405
8.57082
-13.6745
-13.0251
-12.2862
-11.4186
-10.2553
-8.69912
-6.64153
-3.9878
-0.837193
2.6581
5.85229
7.86462
8.87408
9.3507
9.57823
9.66912
9.71949
9.7447
9.75437
9.75924
-15.2698
-14.5185
-13.7204
-12.7218
-11.3652
-9.54328
-7.14674
-4.11176
-0.57848
3.26575
6.71912
8.86791
9.94122
10.4625
10.712
10.8203
10.8763
10.9099
10.9291
10.9323
-16.6008
-15.7329
-14.9259
-13.8246
-12.2934
-10.2506
-7.56695
-4.19619
-0.343076
3.78541
7.49773
9.81187
10.9539
11.5384
11.8001
11.9229
11.9884
12.0212
12.0389
12.0402
-17.5976
-16.6689
-15.8756
-14.6905
-13.0332
-10.8282
-7.91872
-4.25955
-0.138892
4.23083
8.22208
10.6779
11.9313
12.5488
12.8248
12.9519
13.0191
13.0567
13.0825
13.0864
-18.3471
-17.4617
-16.6426
-15.36
-13.602
-11.2763
-8.20184
-4.29071
0.0751835
4.68655
8.89921
11.5019
12.8285
13.4669
13.7472
13.8864
13.9756
14.0326
14.0678
14.0722
-18.8769
-17.9957
-17.2096
-15.8893
-14.0603
-11.6364
-8.41489
-4.2713
0.308476
5.15169
9.52912
12.2465
13.6199
14.2789
14.595
14.7641
14.8633
14.9259
14.9718
14.9718
-19.2975
-18.3916
-17.6141
-16.2441
-14.3926
-11.8971
-8.54853
-4.22252
0.520769
5.55698
10.0672
12.8798
14.3152
15.0217
15.3669
15.5579
15.6791
15.7519
15.7993
15.8029
-19.6047
-18.7088
-17.8639
-16.4878
-14.6309
-12.0646
-8.60335
-4.19492
0.66768
5.84557
10.4857
13.4037
14.9217
15.6831
16.0693
16.284
16.4168
16.5067
16.5704
16.573
-19.8008
-18.9288
-18.0179
-16.5924
-14.7671
-12.1565
-8.61952
-4.19353
0.739814
6.01909
10.7961
13.835
15.4457
16.275
16.6996
16.9413
17.0948
17.1892
17.2598
17.2608
-19.9422
-19.0615
-18.1126
-16.6149
-14.7967
-12.1793
-8.62048
-4.19818
0.767704
6.12249
11.0305
14.1923
15.8962
16.7907
17.2647
17.5333
17.7011
17.8128
17.8996
17.8958
-20.0251
-19.1681
-18.1588
-16.6142
-14.759
-12.1416
-8.59469
-4.18902
0.792116
6.20286
11.2155
14.4875
16.2826
17.2442
17.7655
18.0683
18.2622
18.3793
18.4803
18.4745
-20.0945
-19.2278
-18.1913
-16.6037
-14.7066
-12.0632
-8.53525
-4.14924
0.839058
6.2836
11.367
14.7323
16.6185
17.6418
18.2029
18.5375
18.7635
18.9059
19.0196
19.0054
-20.1481
-19.282
-18.1987
-16.616
-14.6507
-11.97
-8.45191
-4.07908
0.909518
6.36498
11.4926
14.9342
16.8979
17.9792
18.5845
18.9568
19.226
19.3946
19.5037
19.4894
-20.1893
-19.3223
-18.2163
-16.6313
-14.6129
-11.8938
-8.3669
-3.99244
0.989587
6.43854
11.5951
15.0966
17.1195
18.2517
18.913
19.3287
19.6302
19.822
19.948
19.9326
-20.2317
-19.3634
-18.2311
-16.6531
-14.6055
-11.8546
-8.30708
-3.90961
1.0622
6.49823
11.6734
15.2168
17.2773
18.45
19.1832
19.6635
20.0018
20.2076
20.3393
20.3289
-20.2807
-19.4134
-18.2542
-16.6928
-14.6308
-11.8624
-8.29208
-3.85164
1.11295
6.54053
11.7228
15.2893
17.3732
18.5831
19.4005
19.9586
20.3511
20.5717
20.6801
20.6847
-20.3462
-19.4724
-18.3042
-16.7506
-14.6874
-11.9182
-8.33426
-3.84045
1.12831
6.55757
11.7335
15.3032
17.4093
18.6586
19.5575
20.2131
20.7021
20.9689
21.0152
20.9929
-20.4281
-19.5472
-18.3797
-16.8347
-14.7814
-12.025
-8.43301
-3.90664
1.0912
6.5334
11.6937
15.2554
17.3823
18.6864
19.6626
20.4143
21.0283
21.4262
21.4871
21.2868
-20.5276
-19.6384
-18.4758
-16.9414
-14.9073
-12.1733
-8.57993
-4.04748
0.997542
6.45749
11.5945
15.1475
17.2797
18.6616
19.6951
20.5412
21.3024
21.9488
22.117
21.996
-20.6416
-19.7433
-18.5906
-17.0619
-15.0517
-12.3441
-8.75881
-4.23213
0.847573
6.32136
11.4241
14.9673
17.1058
18.5452
19.619
20.5312
21.373
22.0392
22.1436
22.0129
-20.7639
-19.8625
-18.7217
-17.1927
-15.2047
-12.5206
-8.94742
-4.43195
0.653515
6.13474
11.1951
14.7145
16.8745
18.3168
19.3861
20.2784
21.0697
21.5917
21.6126
21.5151
-20.8909
-19.9957
-18.869
-17.3401
-15.3704
-12.7016
-9.13901
-4.64039
0.423862
5.90353
10.9246
14.4106
16.5665
17.9715
19.0006
19.8158
20.4651
20.7562
20.7367
20.7233
-21.0191
-20.1467
-19.0333
-17.5148
-15.5567
-12.8903
-9.33441
-4.86231
0.175369
5.63911
10.6283
14.0718
16.1733
17.5165
18.4668
19.1583
19.6261
19.8347
19.8231
19.8568
-21.1465
-20.3102
-19.2146
-17.7171
-15.7623
-13.0869
-9.53391
-5.09327
-0.082159
5.34838
10.308
13.6944
15.7021
16.9526
17.7924
18.3638
18.6961
18.7796
18.6781
18.8242
-21.2684
-20.4627
-19.3886
-17.9145
-15.9614
-13.2744
-9.72338
-5.31689
-0.340209
5.05227
9.96123
13.2684
15.1635
16.2884
16.989
17.4111
17.597
17.5881
17.4929
17.6565
-21.3761
-20.5758
-19.5192
-18.0628
-16.1147
-13.4214
-9.87808
-5.5094
-0.573365
4.76708
9.59524
12.796
14.5693
15.5441
16.0948
16.3813
16.4333
16.2263
15.9527
16.0188
-21.4619
-20.6488
-19.5948
-18.1453
-16.2026
-13.5107
-9.98438
-5.65722
-0.768179
4.50152
9.21604
12.2923
13.9376
14.7584
15.1542
15.2884
15.1837
14.5395
13.5627
13.512
-21.5217
-20.6823
-19.6212
-18.1686
-16.2289
-13.5466
-10.0441
-5.76125
-0.928588
4.25208
8.83223
11.7762
13.2911
13.971
14.1966
14.1447
13.843
12.7799
10.7203
8.90509
-21.5599
-20.693
-19.6101
-18.145
-16.2086
-13.5416
-10.0669
-5.83076
-1.06266
4.01611
8.45671
11.267
12.6601
13.2267
13.2842
12.9994
12.4369
11.4215
8.12919
-0.585327
-21.5777
-20.6857
-19.5794
-18.0968
-16.1606
-13.5081
-10.0638
-5.87646
-1.17802
3.79205
8.08656
10.759
12.0457
12.5325
12.4567
11.9761
11.2908
10.5909
10.077
6.74587
-21.5818
-20.6715
-19.5437
-18.0412
-16.1054
-13.4656
-10.0534
-5.92016
-1.29639
3.56267
7.70805
10.2451
11.4493
11.8999
11.8097
11.3729
10.8771
10.8002
11.5999
10.7964
-21.5722
-20.6511
-19.5076
-17.9914
-16.0563
-13.4294
-10.0505
-5.97729
-1.43169
3.31984
7.328
9.74592
10.9022
11.3707
11.4036
11.2053
10.9445
10.8663
11.3004
10.8612
-21.55
-20.6198
-19.4713
-17.9448
-16.0167
-13.4032
-10.0593
-6.05205
-1.58664
3.0621
6.95964
9.28171
10.4305
10.9782
11.1838
11.2076
11.0673
10.8231
10.9184
10.8708
-21.5178
-20.5835
-19.4302
-17.9008
-15.9825
-13.3841
-10.0769
-6.13947
-1.75478
2.79438
6.61059
8.87116
10.0512
10.7131
11.064
11.2252
11.1645
10.9271
11.0241
11.0629
-21.4551
-20.525
-19.3792
-17.8409
-15.9462
-13.3625
-10.0933
-6.22941
-1.9247
2.52456
6.27959
8.52438
9.7678
10.5366
10.9953
11.2487
11.3049
11.1743
11.2829
11.3178
-21.3613
-20.4304
-19.2892
-17.753
-15.8954
-13.3217
-10.0963
-6.30919
-2.08213
2.26732
5.95109
8.24947
9.56787
10.4221
10.9515
11.2928
11.4936
11.5032
11.5944
11.6043
-21.2347
-20.291
-19.1707
-17.6082
-15.8167
-13.2431
-10.0752
-6.36306
-2.23666
2.02646
5.66564
8.00743
9.42868
10.3588
10.9453
11.3697
11.7264
11.8549
11.9419
11.941
-21.0239
-20.1085
-18.973
-17.4312
-15.6906
-13.1154
-10.0286
-6.40177
-2.37454
1.81088
5.41993
7.80281
9.31137
10.3304
11.0158
11.4977
11.9492
12.156
12.2525
12.257
-20.7643
-19.8351
-18.718
-17.1989
-15.4708
-12.9526
-9.95514
-6.4306
-2.49263
1.62149
5.2032
7.62729
9.21797
10.3319
11.1185
11.6809
12.1473
12.4032
12.5025
12.5118
-20.3562
-19.5131
-18.3787
-16.9123
-15.1615
-12.763
-9.85882
-6.43377
-2.5879
1.45129
5.00572
7.47099
9.14553
10.3516
11.2216
11.8418
12.3251
12.6442
12.774
12.7961
-19.8915
-19.0218
-17.9489
-16.5355
-14.8139
-12.5244
-9.72784
-6.40808
-2.66448
1.29326
4.81631
7.31885
9.07759
10.3729
11.3167
12.0006
12.5424
12.9491
13.1266
13.1586
-19.2001
-18.4521
-17.4025
-16.0666
-14.4196
-12.2419
-9.55879
-6.3569
-2.72699
1.14257
4.62368
7.1547
8.99061
10.3787
11.4128
12.1824
12.7927
13.2649
13.4858
13.525
-18.3606
-17.6705
-16.7327
-15.5139
-13.9653
-11.9114
-9.35438
-6.28626
-2.78087
0.989362
4.41077
6.95848
8.86662
10.3505
11.4735
12.3084
12.9535
13.4437
13.7
13.755
-17.3161
-16.7651
-15.9502
-14.8744
-13.456
-11.5424
-9.12878
-6.20533
-2.83567
0.818864
4.15902
6.70921
8.66175
10.1994
11.3619
12.2075
12.851
13.3427
13.6331
13.7104
-16.0749
-15.7347
-15.1207
-14.194
-12.922
-11.158
-8.9016
-6.12799
-2.90238
0.60991
3.83858
6.35336
8.28838
9.80682
10.951
11.7829
12.4239
12.9288
13.2516
13.3518
-14.8571
-14.696
-14.3043
-13.554
-12.4258
-10.7997
-8.68763
-6.06141
-2.99592
0.33044
3.40968
5.83094
7.67735
9.11786
10.2169
11.0391
11.6813
12.1919
12.5316
12.654
-14.294
-14.2431
-13.8302
-13.0959
-12.034
-10.5092
-8.50866
-6.02348
-3.13832
-0.033688
2.85166
5.11378
6.81833
8.15051
9.19047
9.98721
10.6089
11.0947
11.4398
11.589
-14.2684
-14.1858
-13.826
-13.0314
-11.8907
-10.3413
-8.38607
-6.02332
-3.33529
-0.469668
2.18013
4.244
5.79967
7.01241
7.95642
8.66875
9.20826
9.62162
9.92397
10.0808
-14.3827
-14.3295
-14.2231
-13.3207
-11.9749
-10.2895
-8.30808
-6.04236
-3.53674
-0.880722
1.55657
3.46848
4.9093
6.01816
6.85398
7.44177
7.85907
8.16432
8.37301
8.47682
-15.014
-15.0924
-14.9736
-13.5641
-11.939
-10.1408
-8.17301
-6.00872
-3.66153
-1.19469
1.04694
2.81258
4.12731
5.12268
5.85013
6.33065
6.65208
6.8711
7.00123
7.05485
-14.7825
-15.0626
-14.6006
-13.0074
-11.3681
-9.6259
-7.7918
-5.79954
-3.65162
-1.41664
0.598416
2.16134
3.29041
4.12382
4.72139
5.09911
5.34095
5.49641
5.58505
5.61971
-12.1962
-12.4416
-12.1075
-11.1679
-9.96991
-8.55616
-7.01379
-5.31287
-3.45306
-1.52324
0.224849
1.55287
2.47771
3.14799
3.63007
3.93291
4.12411
4.24516
4.31463
4.34482
-8.3554
-8.42317
-8.37126
-8.12712
-7.6444
-6.8604
-5.81707
-4.54055
-3.07314
-1.51294
-0.0664274
1.02736
1.76929
2.30459
2.69716
2.94466
3.09956
3.19859
3.2567
3.28109
-4.85498
-4.89725
-4.95265
-5.018
-5.00705
-4.78755
-4.3009
-3.53355
-2.53425
-1.38251
-0.255684
0.627425
1.22129
1.65032
1.96971
2.1675
2.2922
2.37873
2.43397
2.45988
-2.29078
-2.33738
-2.43708
-2.59221
-2.76572
-2.84031
-2.75092
-2.43132
-1.873
-1.12913
-0.313154
0.382884
0.851303
1.18585
1.44691
1.60601
1.70926
1.78817
1.83645
1.85862
-0.759853
-0.803309
-0.909995
-1.06555
-1.24014
-1.3872
-1.47204
-1.42654
-1.19197
-0.775616
-0.251356
0.279795
0.640781
0.882343
1.10316
1.23255
1.3176
1.3836
1.41786
1.43095
-0.00293985
-0.0376015
-0.130664
-0.264689
-0.402007
-0.517437
-0.617834
-0.669396
-0.614769
-0.413293
-0.0918443
0.257941
0.551048
0.699646
0.898378
0.986722
1.05525
1.10103
1.12549
1.13357
0.344577
0.312873
0.224606
0.103668
-0.00538373
-0.0793458
-0.149056
-0.203737
-0.20401
-0.112067
0.0754661
0.304023
0.50321
0.628284
0.761098
0.830547
0.876649
0.904518
0.919348
0.923746
0.465191
0.441399
0.362273
0.249684
0.152489
0.0939647
0.0489442
0.0231582
0.0330738
0.0916722
0.204832
0.355634
0.497756
0.591148
0.6808
0.723331
0.749046
0.764493
0.771188
0.7729
0.471899
0.456291
0.392377
0.291574
0.195895
0.127997
0.0861924
0.0856022
0.123409
0.18901
0.280584
0.392284
0.493675
0.555208
0.617426
0.637462
0.649595
0.655553
0.655277
0.654617
0.423727
0.413494
0.36787
0.291259
0.206678
0.13128
0.0722762
0.0692556
0.119248
0.200496
0.297322
0.392811
0.466519
0.498353
0.530531
0.543149
0.547539
0.547479
0.545642
0.544153
0.355222
0.348349
0.320451
0.274063
0.218074
0.154782
0.085456
0.0610443
0.0907251
0.167423
0.265674
0.347027
0.398723
0.412209
0.428398
0.436307
0.437877
0.437415
0.436209
0.43541
0.293534
0.28947
0.274635
0.251003
0.224566
0.186705
0.132285
0.0960087
0.091815
0.135325
0.212083
0.270029
0.306036
0.315506
0.325935
0.328856
0.33156
0.334173
0.334125
0.334143
0.249784
0.248051
0.241964
0.231597
0.224539
0.209409
0.179842
0.152314
0.126762
0.130369
0.164037
0.193157
0.223271
0.232834
0.24077
0.238836
0.240167
0.243227
0.243849
0.243889
0.222876
0.222137
0.220953
0.218199
0.219846
0.218092
0.206833
0.195426
0.167014
0.145668
0.140067
0.144159
0.167028
0.173044
0.179526
0.175405
0.173085
0.171514
0.169023
0.168339
0.210676
0.209779
0.209422
0.20802
0.209741
0.20991
0.206646
0.206117
0.184266
0.158487
0.138054
0.125751
0.135485
0.133951
0.136847
0.132923
0.127794
0.121241
0.114368
0.112777
0.207049
0.205491
0.202703
0.197151
0.192314
0.184995
0.179997
0.182172
0.173168
0.160229
0.145777
0.125055
0.124209
0.113108
0.110818
0.102808
0.0946962
0.0856967
0.0754575
0.0731403
0.202485
0.20066
0.19426
0.182876
0.170745
0.15472
0.142475
0.142233
0.143075
0.149006
0.148673
0.128638
0.124474
0.104423
0.0945656
0.0811913
0.0694392
0.059191
0.0464262
0.0437958
0.188154
0.186745
0.178643
0.165369
0.151885
0.133305
0.116897
0.110766
0.108529
0.118856
0.128825
0.117491
0.116188
0.0913353
0.0778243
0.061955
0.0487444
0.0399243
0.0256365
0.0236707
0.161438
0.160328
0.153315
0.143679
0.136126
0.123451
0.109051
0.0967911
0.0823114
0.0814873
0.0894368
0.0826311
0.0854871
0.0642043
0.0541488
0.0421223
0.0304427
0.0274045
0.0146857
0.0133628
0.125741
0.12542
0.120951
0.116273
0.115026
0.108947
0.100938
0.0897118
0.0675058
0.0547473
0.0529991
0.041804
0.0455134
0.0332192
0.030315
0.0237284
0.0157932
0.0176528
0.00805196
0.00801641
0.0893043
0.0887426
0.0862361
0.0843114
0.0841833
0.0798303
0.0773923
0.0735858
0.0581088
0.0434797
0.0340101
0.018009
0.0195503
0.0137051
0.0132477
0.0111245
0.00546197
0.00871477
0.00212646
0.00198575
0.0552123
0.055128
0.0524213
0.050637
0.0496779
0.0427966
0.0444274
0.0463679
0.0410469
0.0350267
0.0264677
0.0101835
0.0111978
0.0060865
0.00563335
0.00553198
0.000456865
0.00302689
-0.0029676
-0.00234136
0.0235998
0.0251645
0.0220851
0.019712
0.0185385
0.0108704
0.0127648
0.0145704
0.0123182
0.014098
0.0121919
0.00430611
0.00565469
0.00273144
0.0017679
0.00348271
-0.000645598
0.00202039
-0.00365282
-0.00270316
13.4273
17.0032
17.8181
18.9141
19.7744
20.5215
21.1517
21.6439
21.9405
21.9443
17.1629
18.8478
19.3292
20.0035
20.5702
21.042
21.4136
21.6714
21.7838
21.717
19.0587
19.8741
20.2539
20.6645
21.0131
21.2991
21.5157
21.656
21.7117
21.7107
20.0918
20.5843
20.8265
21.0759
21.2817
21.4481
21.5715
21.6533
21.6934
21.7153
20.7628
21.0099
21.1604
21.312
21.4399
21.5438
21.6221
21.6758
21.7044
21.7341
21.1185
21.2925
21.3733
21.479
21.5581
21.623
21.6743
21.713
21.7381
21.7631
21.3657
21.4825
21.5219
21.5956
21.648
21.6928
21.7294
21.7582
21.7776
21.8025
21.5413
21.6149
21.6483
21.6913
21.7284
21.7601
21.7867
21.8098
21.8281
21.8497
21.6781
21.7257
21.7503
21.7755
21.802
21.826
21.8471
21.8677
21.8847
21.9052
21.7903
21.8188
21.8392
21.8574
21.8766
21.8957
21.9134
21.9315
21.9448
21.9637
21.89
21.9091
21.9264
21.9415
21.9569
21.9716
21.9843
21.997
22.0053
22.0216
21.9841
21.9983
22.0138
22.0271
22.0389
22.0495
22.0589
22.0674
22.0712
22.0828
22.0766
22.0881
22.1024
22.1121
22.12
22.1278
22.1354
22.1423
22.1441
22.1519
22.1767
22.1815
22.1901
22.1957
22.1994
22.204
22.2101
22.218
22.2219
22.2313
22.2922
22.2791
22.2713
22.2653
22.2626
22.2638
22.2702
22.2829
22.2972
22.3267
22.4129
22.3569
22.3265
22.309
22.3007
22.301
22.3097
22.3286
22.3602
22.4295
)
;

boundaryField
{
    wall-4
    {
        type            zeroGradient;
    }
    pressure-outlet-7
    {
        type            fixedValue;
        value           uniform 0;
    }
    velocity-inlet-6
    {
        type            zeroGradient;
    }
    velocity-inlet-5
    {
        type            zeroGradient;
    }
    frontAndBackPlanes
    {
        type            empty;
    }
}


// ************************************************************************* //
