/*--------------------------------*- C++ -*----------------------------------*\
| =========                 |                                                 |
| \\      /  F ield         | OpenFOAM: The Open Source CFD Toolbox           |
|  \\    /   O peration     | Version:  2412                                  |
|   \\  /    A nd           | Website:  www.openfoam.com                      |
|    \\/     M anipulation  |                                                 |
\*---------------------------------------------------------------------------*/
FoamFile
{
    version     2.0;
    format      ascii;
    arch        "LSB;label=32;scalar=64";
    class       surfaceScalarField;
    location    "8.25";
    object      phi;
}
// * * * * * * * * * * * * * * * * * * * * * * * * * * * * * * * * * * * * * //

dimensions      [0 3 -1 0 0 0 0];

oriented        oriented;

internalField   nonuniform List<scalar> 
4262
(
-0.0013862
0.221899
-0.00339121
0.830658
-0.00552843
1.76928
-0.00771431
3.16735
-0.0106187
5.18751
-0.0136233
8.01737
-0.0165213
11.85
-0.0186911
16.8219
-0.0210907
22.8842
-0.0213842
29.5286
-0.0213607
29.5283
-0.0195707
22.88
-0.0167434
16.8169
-0.0138122
11.8442
-0.010791
8.01134
-0.0082053
5.18202
-0.00624003
3.1632
-0.0046596
1.76556
-0.00277413
0.826768
0.217739
-0.00342225
0.225321
-0.00831678
0.835553
-0.0146227
1.77559
-0.0221074
3.17484
-0.030737
5.19614
-0.0389965
8.02563
-0.0467839
11.8578
-0.055989
16.8311
-0.06529
22.8935
-0.0639793
29.5273
-0.0593221
29.5237
-0.0526182
22.8733
-0.045766
16.8101
-0.0373096
11.8358
-0.0301234
8.00416
-0.0239614
5.17586
-0.0170694
3.15631
-0.0113827
1.75988
-0.00499952
0.820385
0.212739
-0.00616717
0.231488
-0.0144744
0.84386
-0.024922
1.78603
-0.0371147
3.18703
-0.0506836
5.20971
-0.0642141
8.03916
-0.0781758
11.8718
-0.0888872
16.8418
-0.101539
22.9062
-0.102373
29.5282
-0.0987718
29.5201
-0.0896364
22.8642
-0.0764662
16.7969
-0.0628175
11.8221
-0.0488146
7.99015
-0.0362234
5.16326
-0.0252251
3.14531
-0.0142923
1.74894
-0.00494309
0.811035
0.207796
-0.00923587
0.240724
-0.0217343
0.856358
-0.0369079
1.80121
-0.0541467
3.20427
-0.0715595
5.22712
-0.0881209
8.05572
-0.107443
11.8911
-0.123928
16.8583
-0.143351
22.9256
-0.141901
29.5267
-0.133688
29.5119
-0.119318
22.8498
-0.100038
16.7776
-0.0827158
11.8048
-0.0636331
7.97107
-0.0465412
5.14617
-0.0309636
3.12973
-0.0168322
1.73481
-0.00508466
0.799288
0.202711
-0.01297
0.253694
-0.0294954
0.872884
-0.0492713
1.82098
-0.0714565
3.22645
-0.0940594
5.24972
-0.115598
8.07726
-0.137755
11.9133
-0.156521
16.8771
-0.178578
22.9477
-0.17869
29.5268
-0.171112
29.5043
-0.154594
22.8333
-0.129403
16.7524
-0.102561
11.7779
-0.0774715
7.94598
-0.0568859
5.12559
-0.0377156
3.11056
-0.0201548
1.71725
-0.00559618
0.784729
0.197115
-0.0166254
0.27032
-0.0377045
0.893963
-0.0615393
1.84482
-0.0880066
3.25292
-0.117969
5.27968
-0.144193
8.10348
-0.168181
11.9373
-0.193669
16.9026
-0.220606
22.9746
-0.219075
29.5253
-0.206574
29.4918
-0.181224
22.808
-0.151208
16.7224
-0.12091
11.7476
-0.0933166
7.91839
-0.0667124
5.09898
-0.04372
3.08757
-0.0244575
1.69799
-0.00756695
0.767839
0.189548
-0.0160407
0.28636
-0.0375343
0.915456
-0.0645118
1.8718
-0.0964923
3.2849
-0.131659
5.31485
-0.169098
8.14092
-0.199649
11.9678
-0.228952
16.9319
-0.25709
23.0027
-0.255201
29.5234
-0.242512
29.4791
-0.213974
22.7794
-0.18009
16.6885
-0.139891
11.7074
-0.105659
7.88416
-0.0773668
5.07069
-0.0518166
3.06202
-0.029886
1.67606
-0.0107027
0.748655
0.178845
-0.014186
0.300546
-0.0406662
0.941937
-0.073847
1.90498
-0.111641
3.3227
-0.152838
5.35605
-0.19626
8.18434
-0.234823
12.0064
-0.270914
16.968
-0.303751
23.0356
-0.29933
29.519
-0.278561
29.4583
-0.240058
22.7409
-0.198953
16.6474
-0.158834
11.6673
-0.124962
7.85028
-0.0910762
5.03681
-0.0609515
3.0319
-0.0349168
1.65002
-0.013959
0.727698
0.164886
-0.0171895
0.317736
-0.0495695
0.974317
-0.0871838
1.94259
-0.127321
3.36283
-0.169882
5.39861
-0.218599
8.23306
-0.265379
12.0531
-0.308165
17.0107
-0.34458
23.072
-0.338196
29.5126
-0.314741
29.4349
-0.276129
22.7023
-0.235612
16.6069
-0.186389
11.6181
-0.140171
7.80407
-0.099085
4.99572
-0.064422
2.99723
-0.0355142
1.62112
-0.0155832
0.707767
0.149303
-0.0242946
0.34203
-0.0650494
1.01507
-0.105641
1.98318
-0.147939
3.40513
-0.195147
5.44582
-0.248534
8.28645
-0.303235
12.1079
-0.35367
17.0612
-0.396798
23.1151
-0.389474
29.5053
-0.359178
29.4046
-0.312856
22.656
-0.259009
16.553
-0.20697
11.5661
-0.155216
7.75231
-0.104765
4.94527
-0.0612232
2.95369
-0.0279206
1.58781
-0.0127349
0.692581
0.136568
-0.0324829
0.374513
-0.0840357
1.06662
-0.127973
2.02712
-0.174192
3.45135
-0.223257
5.49488
-0.276371
8.33956
-0.334461
12.1659
-0.390935
17.1177
-0.442936
23.1671
-0.434871
29.4972
-0.405347
29.375
-0.358251
22.6089
-0.301376
16.4962
-0.235137
11.4998
-0.168221
7.68539
-0.111213
4.88826
-0.0608429
2.90332
-0.0191583
1.54613
-0.00837641
0.681799
0.128192
-0.0375004
0.412014
-0.0952426
1.12437
-0.142459
2.07434
-0.193832
3.50272
-0.252831
5.55388
-0.316604
8.40333
-0.379913
12.2292
-0.442549
17.1803
-0.498836
23.2234
-0.495804
29.4942
-0.464894
29.3441
-0.406432
22.5504
-0.33231
16.4221
-0.259343
11.4269
-0.189899
7.61595
-0.122056
4.82042
-0.0633145
2.84458
-0.0163401
1.49915
-0.00740016
0.672859
0.120792
-0.0432339
0.455247
-0.109299
1.19043
-0.162097
2.12713
-0.221307
3.56193
-0.284448
5.61702
-0.35136
8.47025
-0.420836
12.2987
-0.492974
17.2524
-0.552179
23.2826
-0.552493
29.4945
-0.523604
29.3152
-0.460289
22.4871
-0.380573
16.3423
-0.29244
11.3387
-0.209459
7.53297
-0.138811
4.74977
-0.0756807
2.78145
-0.0232038
1.44668
-0.0106444
0.6603
0.110147
-0.0427465
0.497994
-0.110162
1.25785
-0.168999
2.18597
-0.241746
3.63468
-0.322772
5.69805
-0.406183
8.55366
-0.484716
12.3773
-0.560277
17.328
-0.623506
23.3458
-0.626624
29.4976
-0.594422
29.283
-0.515289
22.408
-0.414146
16.2412
-0.317559
11.2421
-0.232863
7.44827
-0.156442
4.67335
-0.0909758
2.71598
-0.0352269
1.39093
-0.0161011
0.641174
0.0940463
-0.0490685
0.547062
-0.125537
1.33432
-0.191083
2.25152
-0.269055
3.71265
-0.357577
5.78657
-0.450262
8.64634
-0.543448
12.4704
-0.634767
17.4193
-0.702016
23.4131
-0.703944
29.4995
-0.659261
29.2384
-0.566632
22.3153
-0.462081
16.1366
-0.354476
11.1345
-0.256905
7.3507
-0.173319
4.58976
-0.105581
2.64824
-0.0465188
1.33187
-0.0209105
0.615565
0.0731358
-0.0479537
0.595016
-0.123037
1.4094
-0.206
2.33448
-0.310135
3.81679
-0.413089
5.88952
-0.518544
8.7518
-0.626358
12.5783
-0.729387
17.5223
-0.802739
23.4864
-0.797704
29.4945
-0.733681
29.1743
-0.626654
22.2083
-0.503211
16.0132
-0.387466
11.0188
-0.282995
7.24623
-0.185584
4.49235
-0.109553
2.57221
-0.0517241
1.27404
-0.0234061
0.587247
0.0497297
-0.0630051
0.658021
-0.154448
1.50084
-0.243181
2.42321
-0.348614
3.92222
-0.464465
6.00537
-0.589021
8.87635
-0.715097
12.7043
-0.836713
17.644
-0.912618
23.5623
-0.899122
29.481
-0.822571
29.0978
-0.699125
22.0849
-0.569155
15.8832
-0.438683
10.8883
-0.311186
7.11874
-0.202557
4.38372
-0.114151
2.48381
-0.0571508
1.21704
-0.026114
0.556211
0.0236157
-0.0633497
0.721371
-0.164495
1.60199
-0.278336
2.53705
-0.405841
4.04973
-0.530628
6.13016
-0.666112
9.01184
-0.808587
12.8468
-0.9568
17.7922
-1.0437
23.6492
-1.02233
29.4597
-0.929851
29.0053
-0.791155
21.9462
-0.632657
15.7247
-0.480868
10.7365
-0.343505
6.98137
-0.223252
4.26347
-0.117191
2.37775
-0.0591076
1.15895
-0.0274805
0.524584
-0.00386483
-0.0816703
0.803041
-0.196563
1.71688
-0.316462
2.65695
-0.452299
4.18556
-0.605667
6.28353
-0.766977
9.17315
-0.929412
13.0092
-1.09363
17.9564
-1.18215
23.7378
-1.15744
29.4349
-1.05181
28.8997
-0.889624
21.784
-0.71363
15.5487
-0.538473
10.5614
-0.377304
6.8202
-0.240837
4.127
-0.11936
2.25627
-0.0640611
1.10365
-0.0307425
0.491265
-0.0346073
-0.0918751
0.894916
-0.223852
1.84886
-0.36737
2.80047
-0.523068
4.34126
-0.692467
6.45293
-0.87613
9.35681
-1.06124
13.1944
-1.25732
18.1525
-1.34895
23.8294
-1.32008
29.4061
-1.19818
28.7778
-1.00778
21.5936
-0.788626
15.3296
-0.585373
10.3581
-0.40774
6.64257
-0.259927
3.97919
-0.127259
2.1236
-0.067881
1.04427
-0.0340225
0.457407
-0.0686298
-0.107227
1.00214
-0.256308
1.99794
-0.418487
2.96265
-0.590627
4.5134
-0.792199
6.6545
-1.00693
9.57154
-1.23042
13.4179
-1.44786
18.3699
-1.53561
23.9171
-1.50093
29.3714
-1.35541
28.6323
-1.128
21.3662
-0.88519
15.0868
-0.649137
10.1221
-0.436035
6.42947
-0.268934
3.81209
-0.132166
1.98684
-0.0782092
0.990318
-0.0400673
0.419265
-0.108697
-0.130233
1.13238
-0.299886
2.16759
-0.488638
3.1514
-0.700946
4.72571
-0.938987
6.89254
-1.19194
9.82449
-1.44474
13.6707
-1.68295
18.6081
-1.7638
23.998
-1.71574
29.3233
-1.5374
28.4539
-1.26428
21.0931
-0.972551
14.795
-0.700805
9.85032
-0.465617
6.19428
-0.279514
3.62599
-0.145759
1.85308
-0.0926485
0.937207
-0.0483182
0.374934
-0.157015
-0.147401
1.27978
-0.342903
2.36309
-0.567489
3.37599
-0.811808
4.97003
-1.10021
7.18094
-1.40726
10.1315
-1.70728
13.9707
-1.96192
18.8627
-2.02741
24.0635
-1.95689
29.2528
-1.72879
28.2258
-1.4067
20.771
-1.07088
14.4592
-0.759789
9.53923
-0.494073
5.92856
-0.290352
3.42227
-0.155882
1.71861
-0.104719
0.886045
-0.0585351
0.32875
-0.21555
-0.190872
1.47065
-0.429968
2.60219
-0.695971
3.64199
-1.00322
5.27728
-1.35471
7.53243
-1.70518
10.482
-2.04314
14.3086
-2.29853
19.1181
-2.34088
24.1058
-2.23573
29.1477
-1.9425
27.9326
-1.55487
20.3833
-1.16464
14.069
-0.8191
9.19368
-0.532044
5.64151
-0.307163
3.19738
-0.188614
1.60006
-0.139054
0.836484
-0.0741872
0.263884
-0.289738
-0.227129
1.69778
-0.482523
2.85758
-0.840543
4.00001
-1.25122
5.68796
-1.66833
7.94954
-2.06173
10.8754
-2.43739
14.6843
-2.67629
19.357
-2.68761
24.1171
-2.54538
29.0054
-2.1775
27.5647
-1.70945
19.9153
-1.26211
13.6217
-0.881015
8.81259
-0.572047
5.33254
-0.334777
2.96011
-0.229448
1.49473
-0.192425
0.79946
-0.108661
0.18012
-0.398398
-0.365161
2.06294
-0.79432
3.28674
-1.21953
4.42523
-1.64007
6.1085
-2.07909
8.38855
-2.51373
11.3101
-2.91802
15.0886
-3.12055
19.5596
-3.09473
24.0913
-2.88493
28.7956
-2.41422
27.094
-1.87656
19.3776
-1.37007
13.1152
-0.92525
8.36777
-0.578725
4.98602
-0.318638
2.70003
-0.21087
1.38696
-0.172759
0.76135
-0.0956853
0.103046
-0.494084
-0.278572
2.34151
-0.623508
3.63168
-0.989126
4.79085
-1.42077
6.54014
-1.88899
8.85677
-2.37575
11.7968
-2.86502
15.5779
-3.15389
19.8484
-3.27928
24.2167
-3.1926
28.709
-2.75755
26.6589
-2.15208
18.7721
-1.52889
12.492
-0.970768
7.80965
-0.541647
4.5569
-0.217159
2.37554
-0.0919369
1.26174
-0.0362175
0.705631
-0.0443178
0.111146
-0.538401
-0.161058
2.50257
-0.407183
3.8778
-0.69608
5.07974
-1.00827
6.85233
-1.34229
9.19079
-1.68544
12.14
-2.03439
15.9268
-2.21254
20.0266
-2.27133
24.2755
-2.13505
28.5727
-1.72669
26.2506
-1.20634
18.2518
-0.714421
12.0001
-0.304244
7.39947
-0.015655
4.26831
0.123121
2.23676
0.161429
1.22343
0.133773
0.733287
0.0540818
0.190837
-0.48432
-0.109822
2.61239
-0.252893
4.02087
-0.455047
5.2819
-0.686517
7.0838
-0.933255
9.43752
-1.17093
12.3776
-1.38811
16.144
-1.49149
20.13
-1.49425
24.2783
-1.31744
28.3959
-0.953259
25.8864
-0.546334
17.8449
-0.195547
11.6493
0.0545358
7.14939
0.207607
4.11524
0.223019
2.22135
0.193972
1.25248
0.147146
0.780113
0.0787448
0.259238
-0.405575
-0.0779725
2.69036
-0.196481
4.13938
-0.343498
5.42891
-0.491048
7.23135
-0.641254
9.58773
-0.791844
12.5282
-0.917221
16.2694
-0.967338
20.1801
-0.924642
24.2356
-0.717702
28.1889
-0.396351
25.565
-0.0985298
17.5471
0.17078
11.38
0.335911
6.98426
0.426817
4.02433
0.415251
2.23292
0.333711
1.33402
0.213756
0.900068
0.0823378
0.390656
-0.323237
-0.0368206
2.72718
-0.127521
4.23008
-0.224671
5.52606
-0.324184
7.33087
-0.424398
9.68794
-0.521676
12.6255
-0.586207
16.3339
-0.59359
20.1875
-0.507206
24.1492
-0.284246
27.966
8.81296e-05
25.2807
0.239029
17.3081
0.390143
11.2288
0.459164
6.91524
0.466568
4.01693
0.388663
2.31082
0.269777
1.45291
0.169223
1.00062
0.08287
0.477009
-0.240367
-0.0167827
2.74397
-0.110271
4.32357
-0.190059
5.60585
-0.23645
7.37726
-0.285669
9.73716
-0.33334
12.6732
-0.354891
16.3554
-0.325656
20.1582
-0.212334
24.0359
0.0203317
27.7333
0.254578
25.0465
0.43777
17.1249
0.536325
11.1303
0.578001
6.87356
0.540916
4.05401
0.443988
2.40775
0.324656
1.57224
0.207447
1.11783
0.093173
0.591284
-0.147194
0.00325803
2.74071
-0.056382
4.38321
-0.10747
5.65694
-0.137507
7.40729
-0.172163
9.77182
-0.196485
12.6975
-0.193965
16.3529
-0.142051
20.1063
-0.0185227
23.9123
0.171936
27.5429
0.400715
24.8177
0.55066
16.975
0.620593
11.0604
0.624504
6.86965
0.582705
4.09581
0.484657
2.5058
0.340374
1.71652
0.206463
1.25174
0.0673615
0.730385
-0.0798325
0.00340736
2.7373
-0.0599431
4.44656
-0.110717
5.70771
-0.120037
7.41661
-0.117166
9.76895
-0.110641
12.691
-0.0883822
16.3307
-0.0217671
20.0397
0.0893822
23.8012
0.272237
27.36
0.479712
24.6102
0.622754
16.8319
0.689743
10.9934
0.696297
6.86309
0.604276
4.18783
0.451395
2.65868
0.300754
1.86716
0.16192
1.39058
0.0547055
0.8376
-0.0251269
0.0305838
2.70672
0.0105976
4.46655
-0.00910555
5.72742
-0.0529488
7.46046
-0.064025
9.78002
-0.0558627
12.6828
-0.0208047
16.2956
0.0398776
19.979
0.148963
23.6921
0.329712
27.1793
0.523868
24.416
0.653766
16.702
0.700966
10.9462
0.674789
6.88927
0.598061
4.26456
0.465092
2.79165
0.30016
2.03209
0.152476
1.53826
0.0423193
0.947756
0.0171923
0.016895
2.68982
-0.0145897
4.49803
-0.0324387
5.74526
-0.0488435
7.47686
-0.0499728
9.78115
-0.0297557
12.6626
0.0125266
16.2533
0.0697315
19.9218
0.179048
23.5828
0.353718
27.0046
0.535606
24.2342
0.652495
16.5852
0.702363
10.8963
0.686771
6.90486
0.565368
4.38596
0.405975
2.95104
0.259437
2.17863
0.127148
1.67055
0.024817
1.05009
0.0420094
0.0431458
2.64668
0.0512719
4.4899
0.0278688
5.76867
-0.00571969
7.51045
-0.0296147
9.80505
-0.0158616
12.6489
0.0224348
16.215
0.0828997
19.8614
0.189033
23.4767
0.35268
26.8409
0.521819
24.065
0.622332
16.4846
0.656343
10.8623
0.623755
6.93745
0.53289
4.47683
0.385151
3.09878
0.21582
2.34796
0.0804524
1.80592
0.00407852
1.12646
0.0460879
0.0266586
2.62002
0.00665065
4.50991
0.000922708
5.7744
-0.0107073
7.52208
-0.0240737
9.81841
-0.0104482
12.6352
0.0271486
16.1774
0.0869055
19.8016
0.185875
23.3777
0.33451
26.6923
0.488824
23.9107
0.571749
16.4017
0.606312
10.8277
0.579493
6.96427
0.455828
4.60049
0.308533
3.24608
0.185145
2.47135
0.0647636
1.9263
-0.00175368
1.19298
0.0443342
0.0346945
2.58532
0.0466798
4.49793
0.0268688
5.79421
0.00606693
7.54288
-0.00788264
9.83236
-0.00379378
12.6311
0.0285503
16.1451
0.0842111
19.7459
0.17392
23.288
0.30602
26.5602
0.442938
23.7738
0.506867
16.3378
0.528909
10.8057
0.493833
6.99935
0.406707
4.68762
0.265671
3.38711
0.112757
2.62426
0.0128179
2.02624
-0.0151364
1.22093
0.0291978
0.0236303
2.56169
0.00225241
4.5193
-0.00381923
5.80028
-0.00699715
7.54606
-0.00757382
9.83294
9.12748e-05
12.6235
0.0285857
16.1166
0.0784401
19.6961
0.15806
23.2084
0.272658
26.4456
0.387117
23.6593
0.433914
16.291
0.451099
10.7885
0.41498
7.03546
0.306282
4.79632
0.186503
3.50689
0.0894017
2.72136
-0.00345969
2.1191
-0.0256543
1.24313
0.00354341
0.0228483
2.53885
0.0231596
4.51899
0.0136674
5.80977
-0.00239452
7.56212
-0.00343716
9.83398
0.00175598
12.6183
0.0268045
16.0915
0.0709433
19.6519
0.140371
23.1389
0.237347
26.3486
0.327504
23.5692
0.360605
16.2579
0.367324
10.7818
0.327091
7.0757
0.240179
4.88323
0.11701
3.63006
-0.0079343
2.84631
-0.0734757
2.18464
-0.0407706
1.21042
-0.0372272
0.0114992
2.52735
-0.00863705
4.53913
-0.0199555
5.82109
-0.0170384
7.55921
-0.0103588
9.8273
-3.91386e-05
12.608
0.0245037
16.067
0.0642698
19.6122
0.123384
23.0798
0.202579
26.2694
0.270706
23.501
0.28914
16.2395
0.28488
10.786
0.227746
7.13283
0.128027
4.98295
0.0320828
3.72601
-0.0386077
2.917
-0.0930455
2.23908
-0.0523635
1.16974
-0.0895907
0.00866601
2.51868
-0.000292212
4.54809
-0.00361577
5.82441
-0.0166486
7.57224
-0.014092
9.82475
-0.0048553
12.5987
0.020064
16.0421
0.0575492
19.5747
0.107203
23.0302
0.169353
26.2073
0.218552
23.4518
0.22292
16.2351
0.207276
10.8017
0.139644
7.20046
0.0499787
5.07261
-0.0455799
3.82156
-0.125558
2.99698
-0.14127
2.25479
-0.0695153
1.09799
-0.159106
2.41985e-05
2.51866
-0.0214044
4.56952
-0.0290204
5.83203
-0.0302264
7.57344
-0.0215679
9.81609
-0.00951255
12.5867
0.0154207
16.0171
0.0507392
19.5394
0.0920539
22.9888
0.139171
26.1602
0.172453
23.4186
0.162803
16.2447
0.13021
10.8343
0.0431192
7.28755
-0.0648372
5.18057
-0.140568
3.8973
-0.166824
3.02323
-0.15647
2.24444
-0.0763634
1.01788
-0.235469
-0.00279498
2.52145
-0.0137099
4.58043
-0.0179081
5.83623
-0.0286657
7.5842
-0.0252489
9.81267
-0.0157124
12.5771
0.010641
15.9908
0.041674
19.5083
0.0775882
22.9529
0.112113
26.1256
0.13268
23.398
0.109559
16.2679
0.058353
10.8855
-0.0370999
7.38301
-0.141222
5.28469
-0.226625
3.9827
-0.25644
3.05305
-0.171798
2.15979
-0.0190118
0.865094
-0.254481
-0.00959616
2.53105
-0.0283462
4.59918
-0.0349253
5.84281
-0.0370037
7.58628
-0.0292094
9.80488
-0.0201039
12.568
0.00490714
15.9658
0.0320716
19.4812
0.0636275
22.9214
0.0896039
26.0997
0.0985612
23.389
0.062199
16.3042
-0.00880114
10.9565
-0.116998
7.4912
-0.251803
5.4195
-0.337858
4.06875
-0.313455
3.02864
-0.13767
1.98401
0.148799
0.578624
-0.105682
-0.0115146
2.54256
-0.020821
4.60849
-0.0270066
5.84899
-0.0353143
7.59459
-0.0326839
9.80225
-0.0283015
12.5636
-0.00705843
15.9445
0.0212069
19.4529
0.0494578
22.8931
0.072272
26.0768
0.0713967
23.3899
0.0175928
16.358
-0.0666906
11.0408
-0.203248
7.62776
-0.344975
5.56122
-0.457891
4.18167
-0.495986
3.06674
-0.320253
1.80828
-0.362867
0.621238
0.601046
-1.0696
-0.0168259
2.55939
-0.0299724
4.62163
-0.0403644
5.85938
-0.0397034
7.59393
-0.0353767
9.79792
-0.0327348
12.561
-0.0150046
15.9268
0.0119313
19.426
0.0356771
22.8694
0.0546362
26.0579
0.0443264
23.4002
-0.0206412
16.423
-0.132762
11.1529
-0.306337
7.80133
-0.516722
5.77161
-0.707729
4.37268
-0.772127
3.13114
-0.716412
1.75256
-1.19681
1.10163
1.20055
-1.79631
-0.0183706
2.57776
-0.0221092
4.62537
-0.0329116
5.87019
-0.034954
7.59597
-0.0355095
9.79848
-0.0365661
12.5621
-0.022175
15.9124
0.00337266
19.4004
0.0242062
22.8485
0.0385453
26.0435
0.0192113
23.4196
-0.0589659
16.5012
-0.199255
11.2932
-0.408699
8.01078
-0.636764
5.99967
-0.838761
4.57467
-0.86227
3.15465
-1.07711
1.9674
-1.58841
1.61293
1.51685
-1.9047
-0.0215617
2.59932
-0.0279581
4.63177
-0.0419333
5.88416
-0.0365408
7.59058
-0.0358811
9.79782
-0.0376178
12.5638
-0.0259212
15.9007
-0.00422792
19.3787
0.0148897
22.8294
0.0246703
26.0338
-0.00507723
23.4493
-0.097056
16.5931
-0.261945
11.4581
-0.510279
8.25911
-0.806321
6.29571
-1.05769
4.82604
-1.15726
3.25421
-1.4787
2.28885
-1.83616
1.97039
1.70154
-2.02085
-0.0193996
2.61872
-0.0213437
4.63371
-0.0323754
5.89519
-0.0321279
7.59033
-0.0338849
9.79957
-0.0374103
12.5673
-0.0277874
15.8911
-0.00923856
19.3602
0.0078958
22.8123
0.0123074
26.0294
-0.0287235
23.4903
-0.131459
16.6959
-0.323936
11.6505
-0.620418
8.55559
-0.915996
6.59129
-1.0702
4.98024
-1.19921
3.38322
-1.56189
2.65153
-1.89701
2.30552
1.90438
-2.09986
-0.0184839
2.6372
-0.0283483
4.64358
-0.0379211
5.90477
-0.0359292
7.58834
-0.0339413
9.79758
-0.0363584
12.5697
-0.0274739
15.8822
-0.0118778
19.3446
0.000184711
22.8002
-0.00119385
26.0307
-0.0500628
23.5392
-0.162178
16.808
-0.379548
11.8679
-0.69088
8.86693
-0.993823
6.89423
-1.22178
5.2082
-1.54924
3.71069
-1.88892
2.9912
-2.13342
2.55002
2.03458
-2.26362
-0.0161222
2.65333
-0.0239286
4.65138
-0.0313881
5.91223
-0.0358062
7.59276
-0.0361799
9.79796
-0.0389463
12.5725
-0.03005
15.8733
-0.0162769
19.3308
-0.00811697
22.7921
-0.0165573
26.0392
-0.0703038
23.5929
-0.191422
16.9291
-0.426161
12.1027
-0.755055
9.19582
-1.06488
7.20406
-1.2482
5.39152
-1.52381
3.98629
-1.85651
3.32391
-2.09107
2.78459
2.22598
-2.28248
-0.0136992
2.66703
-0.0306966
4.66838
-0.040351
5.92188
-0.0422967
7.5947
-0.0411766
9.79684
-0.0429095
12.5742
-0.0339214
15.8643
-0.0219049
19.3188
-0.0168912
22.7871
-0.0305193
26.0528
-0.0883631
23.6508
-0.216365
17.0571
-0.456274
12.3426
-0.782841
9.52239
-1.09108
7.5123
-1.329
5.62944
-1.68924
4.34652
-2.16421
3.79887
-2.51769
3.13808
2.50972
-2.80143
-0.0100862
2.67711
-0.0209022
4.6792
-0.0312902
5.93227
-0.0408289
7.60424
-0.044938
9.80095
-0.0486349
12.5779
-0.0400667
15.8558
-0.0292281
19.308
-0.0264778
22.7843
-0.0435144
26.0698
-0.106083
23.7134
-0.238155
17.1892
-0.474987
12.5794
-0.787625
9.83502
-1.11377
7.83845
-1.44608
5.96175
-1.77216
4.67261
-2.19988
4.22659
-2.66008
3.59828
2.70478
-2.85514
-0.00909205
2.6862
-0.0277659
4.69787
-0.0414305
5.94593
-0.0475452
7.61035
-0.0508736
9.80428
-0.0548417
12.5819
-0.0466142
15.8475
-0.03673
19.2981
-0.035262
22.7828
-0.0539474
26.0885
-0.119727
23.7791
-0.256521
17.326
-0.499603
12.8225
-0.793515
10.1289
-1.07173
8.11666
-1.40984
6.29986
-1.93531
5.19808
-2.29773
4.58901
-2.74645
4.047
3.37005
-3.41173
-0.0054137
2.69162
-0.0159768
4.70843
-0.0299328
5.95989
-0.0449566
7.62538
-0.0543446
9.81366
-0.0614292
12.589
-0.054018
15.8401
-0.0441986
19.2883
-0.0427361
22.7814
-0.060856
26.1066
-0.121594
23.8399
-0.251829
17.4562
-0.48373
13.0544
-0.745731
10.3909
-0.967438
8.33837
-1.25862
6.59104
-1.6456
5.58506
-1.82458
4.76799
-1.32821
3.55063
2.04184
-0.00727011
2.69889
-0.0264708
4.72764
-0.0428021
5.97622
-0.0522061
7.63478
-0.0596602
9.82112
-0.0671525
12.5965
-0.0599247
15.8329
-0.049442
19.2778
-0.0472423
22.7792
-0.0650065
26.1244
-0.123408
23.8983
-0.255168
17.588
-0.488631
13.2878
-0.733124
10.6354
-0.890144
8.49539
-1.02638
6.72728
-1.04765
5.60633
-0.936272
4.65661
-0.651617
3.26598
1.39023
-0.00132061
2.70021
-0.0130653
4.73938
-0.0285486
5.9917
-0.0478151
7.65405
-0.0613359
9.83464
-0.0721011
12.6072
-0.065707
15.8265
-0.0541302
19.2662
-0.050193
22.7752
-0.0652934
26.1395
-0.11716
23.9501
-0.246474
17.7173
-0.466726
13.5081
-0.667074
10.8358
-0.773837
8.60215
-0.850527
6.80397
-0.924857
5.68066
-0.916248
4.648
-0.76907
3.1188
0.621155
-0.00764348
2.70785
-0.0280791
4.75982
-0.0461538
6.00978
-0.0560206
7.66392
-0.0661823
9.8448
-0.0759554
12.617
-0.068728
15.8193
-0.0557967
19.2533
-0.0489666
22.7684
-0.0584532
26.149
-0.0976628
23.9894
-0.220339
17.84
-0.415812
13.7036
-0.567043
10.987
-0.671248
8.70636
-0.782586
6.9153
-0.862037
5.76011
-0.816395
4.60236
-0.387784
2.69019
0.233372
0.00193781
2.70591
-0.0122088
4.77396
-0.0281709
6.02574
-0.0498215
7.68557
-0.0649769
9.85996
-0.0767523
12.6288
-0.0690007
15.8115
-0.0540907
19.2384
-0.0429393
22.7573
-0.0448491
26.1509
-0.0688459
24.0134
-0.174679
17.9458
-0.340604
13.8695
-0.495054
11.1415
-0.616582
8.82789
-0.711315
7.01004
-0.727363
5.77616
-0.555841
4.43084
-0.157897
2.29224
0.0754744
-0.00743496
2.71335
-0.0289114
4.79544
-0.0489055
6.04573
-0.0577066
7.69437
-0.0680276
9.87028
-0.0766549
12.6374
-0.0653212
15.8002
-0.0472027
19.2202
-0.0298123
22.7399
-0.022031
26.1431
-0.0322282
24.0235
-0.122888
18.0365
-0.277713
14.0243
-0.429536
11.2933
-0.524923
8.92327
-0.577538
7.06265
-0.545509
5.74413
-0.398104
4.28344
-0.142668
2.03681
-0.067194
0.00409304
2.70926
-0.0105688
4.8101
-0.0248066
6.05997
-0.0471889
7.71675
-0.0619364
9.88502
-0.0705006
12.646
-0.0560554
15.7857
-0.0339098
19.1981
-0.00821743
22.7142
0.0126449
26.1223
0.00671642
24.0295
-0.0674906
18.1107
-0.211568
14.1684
-0.339512
11.4212
-0.400399
8.98416
-0.423137
7.08539
-0.398589
5.71958
-0.288661
4.17351
-0.0666002
1.81475
-0.133794
-0.00311309
2.71237
-0.0235439
4.83053
-0.0481611
6.08459
-0.0505683
7.71916
-0.0613197
9.89578
-0.0629766
12.6476
-0.041273
15.764
-0.0117575
19.1686
0.0241207
22.6783
0.0527039
26.0937
0.0693334
24.0128
-0.00510243
18.1851
-0.134279
14.2976
-0.221373
11.5083
-0.262556
9.02534
-0.272525
7.09536
-0.245721
5.69278
-0.152501
4.08029
0.0190601
1.64319
-0.114734
0.0144784
2.69789
-0.00212527
4.84713
-0.00958347
6.09205
-0.0310498
7.74062
-0.0474281
9.91215
-0.043644
12.6439
-0.0168347
15.7372
0.0224447
19.1293
0.0616247
22.6391
0.10613
26.0492
0.141038
23.9779
0.072587
18.2536
-0.0401878
14.4103
-0.101974
11.5701
-0.116429
9.0398
-0.128732
7.10766
-0.112448
5.6765
-0.0498821
4.01772
0.0569598
1.53634
-0.0577742
0.00164514
2.69625
-0.0091224
4.8579
-0.0320628
6.11499
-0.0265393
7.7351
-0.0333077
9.91892
-0.0184085
12.629
0.0182835
15.7005
0.0607863
19.0868
0.112808
22.5871
0.176558
25.9854
0.223986
23.9305
0.16587
18.3117
0.073588
14.5026
0.0135733
11.6301
-0.00297945
9.05635
0.0125251
7.09216
0.0111074
5.67791
0.0449392
3.98389
0.0620755
1.51921
0.00430131
0.0446279
2.65162
0.0275218
4.87501
0.0251255
6.11738
-3.66909e-05
7.76026
0.00962041
9.90927
0.0236186
12.615
0.0624384
15.6617
0.114479
19.0348
0.178886
22.5227
0.261982
25.9023
0.318242
23.8743
0.268328
18.3616
0.193335
14.5776
0.149698
11.6738
0.132024
9.07402
0.124785
7.0994
0.152997
5.6497
0.167827
3.96906
0.0826594
1.60437
0.0869607
0.0171064
2.63451
0.0258644
4.86625
0.0262443
6.117
0.0249515
7.76155
0.0475034
9.88671
0.0723117
12.5902
0.123416
15.6106
0.18863
18.9695
0.265899
22.4454
0.366121
25.8021
0.426935
23.8134
0.382958
18.4056
0.319458
14.6411
0.286078
11.7071
0.268312
9.09179
0.270624
7.09708
0.296243
5.62408
0.286545
3.97876
0.116031
1.77489
0.202992
0.0883948
2.54612
0.0967652
4.85788
0.0942671
6.1195
0.0978776
7.75794
0.111082
9.87351
0.146438
12.5548
0.209447
15.5476
0.286722
18.8923
0.375976
22.3562
0.489239
25.6888
0.550436
23.7522
0.508683
18.4473
0.455092
14.6947
0.42803
11.7342
0.416071
9.10375
0.418334
7.09482
0.427712
5.61471
0.374542
4.03193
0.160666
1.98876
0.363659
0.0687317
2.47738
0.116002
4.81061
0.140641
6.09486
0.171666
7.72692
0.202512
9.84266
0.255558
12.5017
0.328735
15.4744
0.419117
18.8019
0.518881
22.2564
0.641061
25.5667
0.693188
23.7001
0.647498
18.493
0.59568
14.7465
0.560241
11.7696
0.530293
9.1337
0.504942
7.12017
0.487586
5.63206
0.422124
4.09739
0.210528
2.20036
0.574187
0.175549
2.30184
0.232503
4.75366
0.269039
6.05833
0.297332
7.69863
0.333799
9.8062
0.398782
12.4368
0.483852
15.3893
0.585417
18.7003
0.693494
22.1483
0.820966
25.4392
0.858631
23.6625
0.799575
18.5521
0.728051
14.8181
0.662313
11.8354
0.601306
9.1947
0.558081
7.1634
0.526783
5.66336
0.450521
4.17365
0.231278
2.4196
0.805465
0.231835
2.07
0.373417
4.61207
0.421335
6.01041
0.462521
7.65744
0.519205
9.74951
0.596636
12.3593
0.692723
15.2933
0.808768
18.5843
0.924476
22.0326
1.04642
25.3172
1.05017
23.6587
0.954343
18.6479
0.848447
14.924
0.751802
11.932
0.662898
9.28361
0.597411
7.22888
0.543321
5.71745
0.447532
4.26944
0.225952
2.64118
1.03142
0.433392
1.63661
0.616948
4.42852
0.682145
5.94521
0.718928
7.62066
0.773341
9.6951
0.856576
12.2761
0.958967
15.1909
1.08654
18.4567
1.20954
21.9096
1.31461
25.2122
1.28103
23.6923
1.15423
18.7747
1.01716
15.061
0.8902
12.059
0.767382
9.40643
0.665626
7.33064
0.573599
5.80948
0.447229
4.39581
0.221514
2.8669
1.25293
0.804136
0.832472
1.02865
4.204
1.02514
5.94873
1.04951
7.59628
1.11394
9.63067
1.2058
12.1842
1.31329
15.0834
1.45091
18.3191
1.58054
21.78
1.6639
25.1288
1.59381
23.7624
1.43807
18.9304
1.27407
15.225
1.1013
12.2317
0.906998
9.60073
0.727753
7.50988
0.572877
5.96435
0.409763
4.55892
0.191193
3.08547
1.44412
0.762427
0.0700457
1.49372
3.4727
1.63293
5.80952
1.60416
7.62505
1.60059
9.63424
1.66295
12.1219
1.77138
14.975
1.91868
18.1718
2.05303
21.6456
2.12199
25.0599
2.03974
23.8446
1.86756
19.1026
1.67015
15.4224
1.43922
12.4627
1.16541
9.87454
0.910985
7.76431
0.69126
6.18408
0.471078
4.77911
0.212035
3.34451
1.65616
0.592724
-0.522678
1.75435
2.31108
2.13372
5.43016
2.1603
7.59847
2.17429
9.62024
2.25022
12.046
2.36799
14.8572
2.52598
18.0138
2.68446
21.4872
2.77778
24.9665
2.70633
23.9161
2.51138
19.2976
2.25621
15.6776
1.96821
12.7507
1.64208
10.2007
1.30127
8.10511
0.964176
6.52118
0.632169
5.11111
0.285444
3.69124
1.9416
0.432882
-0.95556
1.80164
0.942317
2.22394
5.00786
2.25188
7.57053
2.22005
9.65208
2.22435
12.0417
2.24237
14.8392
2.27837
17.9778
2.30751
21.458
2.262
25.012
2.09507
24.083
1.87729
19.5153
1.63864
15.9163
1.37395
13.0154
1.11159
10.463
0.882554
8.33415
0.671974
6.73176
0.454941
5.32815
0.212201
3.93398
2.1538
0.237732
-1.19329
0.868714
0.311336
1.32185
4.55472
1.46215
7.43023
1.43659
9.67764
1.43821
12.04
1.50682
14.7705
1.59949
17.8851
1.68414
21.3734
1.69786
24.9983
1.58378
24.1971
1.41796
19.6812
1.23857
16.0956
1.05423
13.1997
0.845099
10.6722
0.645644
8.53361
0.472995
6.9044
0.30748
5.49366
0.139741
4.10172
2.29354
0.148592
-1.34189
-0.0315484
0.491477
0.232043
4.29113
0.40021
7.26207
0.514557
9.56329
0.643671
11.9109
0.796192
14.618
0.959031
17.7223
1.11633
21.2161
1.19804
24.9166
1.14754
24.2476
1.04528
19.7834
0.919175
16.2218
0.77989
13.339
0.623935
10.8281
0.474144
8.6834
0.343739
7.03481
0.219535
5.61786
0.090786
4.23047
2.38433
-0.22439
-1.11749
-0.734939
1.00203
-0.881633
4.43782
-0.673555
7.05399
-0.378323
9.26806
-0.0985237
11.6311
0.157617
14.3619
0.385708
17.4942
0.613643
20.9881
0.760619
24.7696
0.783933
24.2243
0.739873
19.8275
0.660674
16.301
0.565699
13.434
0.453676
10.9401
0.341445
8.79563
0.240253
7.136
0.143234
5.71488
0.048363
4.32534
2.43269
-0.41478
-0.702715
-0.9525
1.53975
-1.15164
4.63696
-1.08384
6.98618
-0.90413
9.08835
-0.643299
11.3703
-0.344864
14.0634
-0.0570789
17.2064
0.207243
20.7238
0.412479
24.5644
0.494788
24.1419
0.498118
19.8241
0.45761
16.3415
0.395611
13.496
0.314237
11.0215
0.231434
8.87843
0.157377
7.21006
0.0835391
5.78872
0.0139088
4.39497
2.4466
-0.459249
-0.243465
-0.933977
2.01447
-1.04584
4.74883
-1.07098
7.01132
-1.01683
9.03421
-0.872156
11.2256
-0.64245
13.8337
-0.361651
16.9256
-0.0690134
20.4312
0.155265
24.3401
0.27175
24.0255
0.306643
19.7892
0.295204
16.3529
0.259474
13.5317
0.204855
11.0761
0.143929
8.93936
0.0866277
7.26736
0.0302579
5.84509
-0.016815
4.44204
2.42979
-0.438038
0.194572
-0.78611
2.36255
-0.912432
4.87515
-0.918828
7.01772
-0.895084
9.01046
-0.848041
11.1786
-0.7228
13.7085
-0.503652
16.7065
-0.243426
20.1709
-0.0139099
24.1106
0.111523
23.9
0.162601
19.7382
0.17231
16.3432
0.155188
13.5488
0.118341
11.113
0.0710605
8.98664
0.02497
7.31345
-0.0177605
5.88782
-0.0451372
4.46942
2.38465
-0.32128
0.515852
-0.611207
2.65247
-0.752999
5.01694
-0.776099
7.04082
-0.759711
8.99408
-0.724688
11.1436
-0.657617
13.6414
-0.51257
16.5614
-0.311137
19.9695
-0.116023
23.9155