/*--------------------------------*- C++ -*----------------------------------*\
| =========                 |                                                 |
| \\      /  F ield         | OpenFOAM: The Open Source CFD Toolbox           |
|  \\    /   O peration     | Version:  2412                                  |
|   \\  /    A nd           | Website:  www.openfoam.com                      |
|    \\/     M anipulation  |                                                 |
\*---------------------------------------------------------------------------*/
FoamFile
{
    version     2.0;
    format      ascii;
    arch        "LSB;label=32;scalar=64";
    class       volVectorField;
    location    "8.25";
    object      U;
}
// * * * * * * * * * * * * * * * * * * * * * * * * * * * * * * * * * * * * * //

dimensions      [0 1 -1 0 0 0 0];

internalField   nonuniform List<vector> 
2200
(
(0.380594 0.000245643 0)
(1.19482 0.00127396 0)
(2.12306 0.00211422 0)
(3.16888 0.00318422 0)
(4.32464 0.00401888 0)
(5.57074 0.00532302 0)
(6.86305 0.00663246 0)
(8.11968 0.00745532 0)
(9.20562 0.00799653 0)
(9.90053 0.00831066 0)
(9.90042 0.00873791 0)
(9.20642 0.00855069 0)
(8.12189 0.00772291 0)
(6.8652 0.00631948 0)
(5.57274 0.00569677 0)
(4.32511 0.00406809 0)
(3.16796 0.00336798 0)
(2.12211 0.00259677 0)
(1.19275 0.00172282 0)
(0.377178 0.00113041 0)
(0.3848 0.000824315 0)
(1.19874 0.00264241 0)
(2.12718 0.00536415 0)
(3.17249 0.0084291 0)
(4.33076 0.012191 0)
(5.57745 0.0153275 0)
(6.86914 0.0179802 0)
(8.12544 0.0215245 0)
(9.2103 0.0250194 0)
(9.90125 0.0261903 0)
(9.90091 0.0247038 0)
(9.20557 0.0227245 0)
(8.11744 0.0204347 0)
(6.85909 0.0181182 0)
(5.56634 0.0147059 0)
(4.32028 0.0125938 0)
(3.16357 0.00930321 0)
(2.11574 0.00665539 0)
(1.18384 0.00409575 0)
(0.370688 0.00103243 0)
(0.393714 0.00178317 0)
(1.20846 0.00443098 0)
(2.13697 0.00901457 0)
(3.18269 0.0139337 0)
(4.33651 0.0195792 0)
(5.58123 0.02554 0)
(6.87087 0.0309343 0)
(8.12527 0.0354323 0)
(9.21162 0.0394065 0)
(9.90013 0.0417608 0)
(9.89832 0.0413171 0)
(9.2005 0.0391799 0)
(8.11293 0.0353262 0)
(6.85497 0.0301735 0)
(5.56109 0.0248765 0)
(4.31186 0.019143 0)
(3.15145 0.01419 0)
(2.10344 0.00900002 0)
(1.17229 0.00464504 0)
(0.36276 0.00034945 0)
(0.405818 0.00269644 0)
(1.22139 0.00658544 0)
(2.15037 0.0134235 0)
(3.19443 0.020007 0)
(4.35255 0.0278928 0)
(5.59631 0.0347009 0)
(6.88474 0.042214 0)
(8.13769 0.0491736 0)
(9.22071 0.0566481 0)
(9.90032 0.0591464 0)
(9.89639 0.0574326 0)
(9.19639 0.0528926 0)
(8.10438 0.0466387 0)
(6.84137 0.0399316 0)
(5.54578 0.0331283 0)
(4.29694 0.0249931 0)
(3.14012 0.0173255 0)
(2.09111 0.0108474 0)
(1.15878 0.00506485 0)
(0.354142 4.76065e-05 0)
(0.427015 0.00380151 0)
(1.24547 0.00916156 0)
(2.1727 0.0179787 0)
(3.2159 0.0271665 0)
(4.36554 0.035844 0)
(5.60654 0.0452093 0)
(6.89178 0.0543736 0)
(8.14092 0.0633621 0)
(9.22579 0.0705642 0)
(9.89898 0.0749173 0)
(9.89355 0.0727925 0)
(9.18847 0.0687323 0)
(8.09452 0.0612168 0)
(6.8332 0.0516513 0)
(5.53592 0.0396907 0)
(4.28489 0.0304054 0)
(3.12108 0.0214514 0)
(2.07087 0.0125533 0)
(1.13988 0.00591742 0)
(0.344886 -9.78531e-05 0)
(0.453036 0.00440755 0)
(1.27304 0.0113278 0)
(2.2011 0.0235985 0)
(3.24278 0.0334748 0)
(4.39535 0.0451609 0)
(5.63253 0.0564514 0)
(6.91355 0.0669647 0)
(8.15886 0.0767689 0)
(9.23875 0.0884555 0)
(9.89985 0.0922436 0)
(9.88954 0.0899186 0)
(9.18068 0.0821153 0)
(8.08249 0.0716252 0)
(6.81329 0.0593984 0)
(5.51371 0.0486904 0)
(4.26171 0.0358999 0)
(3.10131 0.0243737 0)
(2.04872 0.0146769 0)
(1.11892 0.00696409 0)
(0.334796 0.000808712 0)
(0.481382 0.00312462 0)
(1.30358 0.0118972 0)
(2.22798 0.0228259 0)
(3.26845 0.0367441 0)
(4.41462 0.0510489 0)
(5.64929 0.0654461 0)
(6.92663 0.0789305 0)
(8.16687 0.0918753 0)
(9.24776 0.102588 0)
(9.89813 0.108351 0)
(9.88669 0.104412 0)
(9.17115 0.097975 0)
(8.06823 0.0857467 0)
(6.80127 0.0718709 0)
(5.49931 0.0541074 0)
(4.24314 0.0397836 0)
(3.07757 0.0285896 0)
(2.02589 0.017977 0)
(1.09252 0.00820056 0)
(0.318932 0.00257552 0)
(0.505648 0.00152249 0)
(1.33228 0.0127182 0)
(2.26306 0.0245846 0)
(3.30359 0.0407997 0)
(4.45461 0.060292 0)
(5.68603 0.0773947 0)
(6.95844 0.0930632 0)
(8.19271 0.10742 0)
(9.26694 0.122316 0)
(9.90067 0.127123 0)
(9.88095 0.123054 0)
(9.15936 0.111399 0)
(8.05244 0.0964268 0)
(6.77514 0.0781276 0)
(5.47028 0.0626814 0)
(4.2149 0.0465456 0)
(3.05019 0.0331705 0)
(1.99468 0.0223471 0)
(1.06121 0.00885772 0)
(0.296111 0.00440292 0)
(0.536302 0.00160909 0)
(1.38707 0.0163238 0)
(2.31532 0.0276743 0)
(3.34921 0.0475861 0)
(4.48283 0.0674165 0)
(5.70965 0.087224 0)
(6.97727 0.105404 0)
(8.20613 0.122477 0)
(9.27997 0.138645 0)
(9.89931 0.144789 0)
(9.87773 0.138256 0)
(9.14804 0.127682 0)
(8.03308 0.111019 0)
(6.75821 0.0931741 0)
(5.44905 0.0697388 0)
(4.18603 0.0516073 0)
(3.01555 0.0366405 0)
(1.96219 0.023365 0)
(1.03145 0.00833348 0)
(0.270433 0.00525511 0)
(0.565893 0.00331797 0)
(1.42574 0.0218124 0)
(2.35442 0.0354818 0)
(3.38687 0.055255 0)
(4.53186 0.0764921 0)
(5.75503 0.099566 0)
(7.01688 0.12137 0)
(8.23777 0.141593 0)
(9.30289 0.160204 0)
(9.90239 0.16678 0)
(9.871 0.159309 0)
(9.13109 0.143991 0)
(8.00993 0.12344 0)
(6.71997 0.0990161 0)
(5.40771 0.0799156 0)
(4.14816 0.0577009 0)
(2.98378 0.0369327 0)
(1.9322 0.0202218 0)
(1.00969 0.00549175 0)
(0.246988 0.00508553 0)
(0.625474 0.00474846 0)
(1.5114 0.0282395 0)
(2.41869 0.0469157 0)
(3.43773 0.0657648 0)
(4.56065 0.0866177 0)
(5.77933 0.10907 0)
(7.03695 0.134246 0)
(8.25504 0.157916 0)
(9.31842 0.180139 0)
(9.90087 0.186093 0)
(9.86459 0.177788 0)
(9.11454 0.162238 0)
(7.98219 0.141036 0)
(6.69449 0.117649 0)
(5.37507 0.0868785 0)
(4.10463 0.0634026 0)
(2.93062 0.0387066 0)
(1.88277 0.0164735 0)
(0.989779 0.00209774 0)
(0.228429 0.00456385 0)
(0.671727 0.00681524 0)
(1.5671 0.0307209 0)
(2.45694 0.0536535 0)
(3.48008 0.0748863 0)
(4.61651 0.0939966 0)
(5.82866 0.123389 0)
(7.07798 0.152226 0)
(8.28683 0.178925 0)
(9.34097 0.202385 0)
(9.9012 0.212323 0)
(9.8541 0.202581 0)
(9.08799 0.185683 0)
(7.94491 0.158688 0)
(6.63813 0.126548 0)
(5.31255 0.10162 0)
(4.04622 0.0712829 0)
(2.87835 0.0410135 0)
(1.82998 0.0147458 0)
(0.976877 0.00184309 0)
(0.215915 0.0040606 0)
(0.759839 0.00749358 0)
(1.68352 0.035016 0)
(2.53253 0.0642179 0)
(3.53735 0.08374 0)
(4.65317 0.10896 0)
(5.86082 0.135729 0)
(7.1035 0.167013 0)
(8.3089 0.196682 0)
(9.35726 0.225405 0)
(9.89573 0.234796 0)
(9.8388 0.228028 0)
(9.06113 0.208232 0)
(7.90678 0.181337 0)
(6.60145 0.15047 0)
(5.26943 0.111294 0)
(3.98906 0.0795144 0)
(2.81044 0.0467502 0)
(1.76457 0.018757 0)
(0.960285 0.00467503 0)
(0.199492 0.0041868 0)
(0.814147 0.00863009 0)
(1.75126 0.0332197 0)
(2.58815 0.0636404 0)
(3.60886 0.0931988 0)
(4.73207 0.122222 0)
(5.92595 0.15923 0)
(7.15705 0.191913 0)
(8.35025 0.222685 0)
(9.37989 0.252897 0)
(9.8908 0.267362 0)
(9.82222 0.256991 0)
(9.02547 0.238136 0)
(7.85797 0.204064 0)
(6.5329 0.161569 0)
(5.19556 0.123747 0)
(3.92366 0.0859856 0)
(2.74895 0.0544189 0)
(1.70372 0.0241788 0)
(0.938771 0.0101587 0)
(0.177532 0.00421514 0)
(0.915301 0.00977756 0)
(1.88514 0.038624 0)
(2.66889 0.0753811 0)
(3.6748 0.100502 0)
(4.78544 0.140145 0)
(5.9776 0.177312 0)
(7.20049 0.213209 0)
(8.38293 0.249982 0)
(9.4008 0.285617 0)
(9.88345 0.297893 0)
(9.79886 0.290051 0)
(8.98819 0.264124 0)
(7.81076 0.2273 0)
(6.49105 0.184666 0)
(5.1511 0.132545 0)
(3.8669 0.0927508 0)
(2.68152 0.0638471 0)
(1.62994 0.0289901 0)
(0.903043 0.0151261 0)
(0.142539 0.0043749 0)
(0.979451 0.00971044 0)
(1.97196 0.0373988 0)
(2.76219 0.0736927 0)
(3.78317 0.117019 0)
(4.88896 0.162731 0)
(6.06049 0.207176 0)
(7.26762 0.246412 0)
(8.44124 0.287699 0)
(9.43027 0.325229 0)
(9.88007 0.340591 0)
(9.78139 0.324998 0)
(8.94931 0.297032 0)
(7.75724 0.252107 0)
(6.41416 0.19662 0)
(5.06107 0.145965 0)
(3.77931 0.0989249 0)
(2.61054 0.0710658 0)
(1.56366 0.0285523 0)
(0.868079 0.0179957 0)
(0.107957 0.00455139 0)
(1.08841 0.0152103 0)
(2.10464 0.046408 0)
(2.85641 0.0959085 0)
(3.87573 0.124002 0)
(4.96773 0.184953 0)
(6.14017 0.234823 0)
(7.33783 0.283521 0)
(8.4919 0.330393 0)
(9.46109 0.371781 0)
(9.87685 0.383103 0)
(9.75673 0.366897 0)
(8.9033 0.32911 0)
(7.6952 0.277108 0)
(6.3552 0.223103 0)
(5.00331 0.161984 0)
(3.70779 0.108984 0)
(2.53508 0.0775878 0)
(1.49347 0.0282106 0)
(0.820177 0.020945 0)
(0.0610621 0.0048852 0)
(1.19985 0.0116141 0)
(2.24515 0.0505771 0)
(2.99681 0.102103 0)
(4.00857 0.152513 0)
(5.07841 0.208497 0)
(6.23175 0.264856 0)
(7.41355 0.319118 0)
(8.5663 0.379041 0)
(9.49961 0.425149 0)
(9.87873 0.439207 0)
(9.73924 0.413608 0)
(8.85852 0.370236 0)
(7.63209 0.309289 0)
(6.26332 0.241476 0)
(4.8874 0.182278 0)
(3.59474 0.124241 0)
(2.42792 0.0805238 0)
(1.42319 0.0292916 0)
(0.778826 0.021045 0)
(0.0189804 0.0059648 0)
(1.30853 0.0211842 0)
(2.39528 0.0562933 0)
(3.12502 0.127214 0)
(4.1339 0.160951 0)
(5.19397 0.242206 0)
(6.33988 0.299728 0)
(7.50668 0.368843 0)
(8.6356 0.434079 0)
(9.53593 0.485078 0)
(9.87621 0.496041 0)
(9.70941 0.469061 0)
(8.79744 0.415859 0)
(7.54442 0.344423 0)
(6.17481 0.27551 0)
(4.80736 0.205937 0)
(3.50605 0.136677 0)
(2.32331 0.08106 0)
(1.35541 0.0305816 0)
(0.728884 0.0238265 0)
(-0.033524 0.00666003 0)
(1.49269 0.0183924 0)
(2.58863 0.0708054 0)
(3.29986 0.137569 0)
(4.29523 0.197681 0)
(5.33675 0.271888 0)
(6.46306 0.343483 0)
(7.60716 0.418563 0)
(8.72521 0.499021 0)
(9.57647 0.554331 0)
(9.87402 0.568567 0)
(9.67873 0.532643 0)
(8.73442 0.473092 0)
(7.46199 0.390253 0)
(6.05871 0.301443 0)
(4.66873 0.224905 0)
(3.36676 0.14812 0)
(2.18642 0.0854012 0)
(1.28828 0.0338857 0)
(0.683935 0.0239759 0)
(-0.0867782 0.00920748 0)
(1.62157 0.0274281 0)
(2.77721 0.0728902 0)
(3.47483 0.165812 0)
(4.44576 0.218992 0)
(5.4866 0.314384 0)
(6.5969 0.389721 0)
(7.71589 0.485481 0)
(8.81596 0.573265 0)
(9.60972 0.634661 0)
(9.85984 0.646755 0)
(9.62837 0.605773 0)
(8.64239 0.533087 0)
(7.33768 0.439173 0)
(5.93583 0.342968 0)
(4.55865 0.244247 0)
(3.2605 0.155228 0)
(2.05822 0.085737 0)
(1.21721 0.0377826 0)
(0.634134 0.0284872 0)
(-0.149559 0.0108959 0)
(1.8847 0.0278513 0)
(3.03698 0.0975978 0)
(3.70578 0.178934 0)
(4.66623 0.270374 0)
(5.68335 0.36742 0)
(6.76272 0.466998 0)
(7.85331 0.566222 0)
(8.92087 0.667139 0)
(9.63974 0.732435 0)
(9.84124 0.742446 0)
(9.56965 0.689348 0)
(8.5445 0.606537 0)
(7.21723 0.494183 0)
(5.78315 0.370536 0)
(4.37925 0.263421 0)
(3.09082 0.161433 0)
(1.913 0.0903152 0)
(1.15148 0.0457046 0)
(0.568585 0.0316511 0)
(-0.226329 0.0157503 0)
(2.06247 0.0381784 0)
(3.2674 0.100081 0)
(3.93738 0.217813 0)
(4.8666 0.303928 0)
(5.88402 0.433254 0)
(6.93888 0.543541 0)
(7.98979 0.667656 0)
(9.0331 0.781977 0)
(9.66387 0.84722 0)
(9.80978 0.851745 0)
(9.48806 0.782668 0)
(8.41137 0.679531 0)
(7.05581 0.549007 0)
(5.61746 0.41167 0)
(4.22947 0.274303 0)
(2.95458 0.172773 0)
(1.79544 0.0932417 0)
(1.09978 0.0489729 0)
(0.512822 0.0385502 0)
(-0.315012 0.0188301 0)
(2.43526 0.0408485 0)
(3.63497 0.141715 0)
(4.26204 0.258159 0)
(5.16182 0.38188 0)
(6.13829 0.519682 0)
(7.145 0.661685 0)
(8.1657 0.800004 0)
(9.15647 0.925782 0)
(9.68077 0.98834 0)
(9.77714 0.979109 0)
(9.4022 0.889207 0)
(8.27584 0.759847 0)
(6.88941 0.604389 0)
(5.43215 0.444199 0)
(4.01742 0.295886 0)
(2.75759 0.186125 0)
(1.6498 0.0995346 0)
(1.02899 0.0677813 0)
(0.441941 0.047583 0)
(-0.423086 0.0250556 0)
(2.68936 0.0614363 0)
(3.93948 0.144626 0)
(4.56634 0.303072 0)
(5.44432 0.457288 0)
(6.4144 0.641335 0)
(7.37899 0.802756 0)
(8.35768 0.960314 0)
(9.27462 1.09433 0)
(9.69492 1.14528 0)
(9.73482 1.12459 0)
(9.29451 1.00372 0)
(8.10551 0.848692 0)
(6.69063 0.659877 0)
(5.22147 0.475149 0)
(3.8274 0.32365 0)
(2.57096 0.196715 0)
(1.54833 0.11573 0)
(0.985113 0.0896993 0)
(0.330627 0.0690069 0)
(-0.574791 0.035206 0)
(3.26503 0.0804885 0)
(4.42815 0.247004 0)
(5.0155 0.44248 0)
(5.84623 0.614894 0)
(6.74239 0.807053 -1.21211e-32)
(7.63667 0.988761 4.43385e-33)
(8.58933 1.16568 0)
(9.39357 1.2977 0)
(9.6902 1.33305 0)
(9.68499 1.29017 0)
(9.17225 1.13673 0)
(7.92366 0.937641 0)
(6.4789 0.713268 0)
(4.99941 0.515136 0)
(3.5825 0.332415 0)
(2.35795 0.188896 0)
(1.42914 0.108361 0)
(0.919147 0.081371 0)
(0.162807 0.0709262 0)
(-0.824579 0.0136279 0)
(3.82973 0.208126 -1.3672e-18)
(4.87551 0.335359 1.14128e-18)
(5.40719 0.589095 0)
(6.20591 0.813869 -6.59133e-19)
(7.06675 1.03048 5.32514e-19)
(7.91282 1.22606 -4.70397e-33)
(8.8229 1.41347 0)
(9.47578 1.5329 -7.65874e-20)
(9.67211 1.55332 1.13326e-19)
(9.60511 1.48234 2.0533e-21)
(8.99594 1.28935 0)
(7.66308 1.0538 -2.69632e-19)
(6.15702 0.785381 -3.40669e-19)
(4.65306 0.533787 5.87586e-19)
(3.30707 0.337895 -4.80022e-19)
(2.09142 0.162244 0)
(1.31209 0.0773345 -1.82067e-19)
(0.883818 0.040496 0)
(0.0953979 0.0159965 -9.46479e-19)
(-0.934882 -0.0243226 1.10336e-18)
(4.16856 0.40509 1.15225e-19)
(5.25421 0.587244 -5.01231e-18)
(5.75921 0.87862 7.39679e-19)
(6.51193 1.07364 2.7023e-18)
(7.31137 1.28409 1.17894e-18)
(8.0974 1.48468 -1.87296e-18)
(8.97497 1.68632 0)
(9.49734 1.79527 0)
(9.61919 1.8095 -1.62707e-19)
(9.48797 1.71888 0)
(8.79143 1.48715 8.87784e-19)
(7.39024 1.20187 2.94795e-19)
(5.88134 0.880934 -3.36888e-20)
(4.40122 0.573447 -7.49941e-19)
(3.06332 0.318047 0)
(1.91612 0.150207 0)
(1.25564 0.0714583 -3.09855e-18)
(0.874511 0.0169441 7.92364e-18)
(0.260295 0.00259429 -4.69737e-18)
(-0.878376 -0.0921134 -5.53413e-18)
(4.39194 0.641862 4.61658e-18)
(5.52917 0.918713 -1.79499e-18)
(5.98412 1.14656 -6.50698e-19)
(6.70542 1.3469 -5.00255e-18)
(7.47548 1.56711 3.99891e-19)
(8.22224 1.77713 5.13199e-18)
(9.04199 1.97602 -1.46432e-18)
(9.46418 2.0758 0)
(9.52998 2.0804 2.77531e-19)
(9.34055 1.96737 9.54662e-19)
(8.58726 1.69414 -2.53869e-18)
(7.15435 1.35704 1.37722e-18)
(5.63917 0.977598 -1.12686e-18)
(4.1753 0.635364 2.40192e-18)
(2.90684 0.382083 0)
(1.85795 0.19806 -8.89822e-19)
(1.24154 0.111912 0)
(0.922987 0.0841915 4.84491e-18)
(0.307739 -0.00175183 -1.14498e-17)
(-0.775514 -0.118189 7.18899e-18)
(4.51892 0.88086 -1.90111e-17)
(5.71993 1.26233 9.87114e-18)
(6.17443 1.4853 1.73925e-18)
(6.85639 1.65665 0)
(7.57999 1.87312 3.36658e-18)
(8.28613 2.08667 -3.96561e-18)
(9.04982 2.28299 1.48741e-18)
(9.39682 2.37313 0)
(9.41789 2.3653 -1.78988e-19)
(9.18541 2.22555 -5.96506e-19)
(8.40027 1.90556 2.67338e-18)
(6.95487 1.51542 0)
(5.46392 1.08761 -2.4898e-18)
(4.05205 0.71879 1.32704e-18)
(2.78656 0.427475 3.51449e-18)
(1.83016 0.212352 -3.05094e-18)
(1.27134 0.124113 4.91438e-18)
(0.98294 0.0929833 -1.08422e-17)
(0.470988 0.034756 6.85904e-18)
(-0.598426 -0.115564 -8.55783e-18)
(4.56627 1.08105 1.12466e-17)
(5.80919 1.58953 -1.02893e-17)
(6.25857 1.76002 5.62919e-18)
(6.92272 1.94833 -8.62628e-18)
(7.62023 2.18051 6.65495e-18)
(8.29685 2.4068 -1.53286e-18)
(9.01075 2.59862 8.35263e-20)
(9.30232 2.67969 1.46446e-18)
(9.29328 2.65484 6.53121e-20)
(9.03182 2.48577 -1.72536e-18)
(8.23114 2.1225 -6.02688e-18)
(6.791 1.681 -2.33476e-18)
(5.31436 1.21199 -4.9066e-20)
(3.92496 0.817414 -5.25544e-18)
(2.75529 0.528245 -6.53893e-20)
(1.89199 0.295928 4.87463e-18)
(1.3886 0.221994 -1.51089e-18)
(1.137 0.21432 -8.16707e-19)
(0.625091 0.0909857 0)
(-0.501893 -0.119997 1.96613e-17)
(4.56943 1.25163 0)
(5.88483 1.92662 2.90367e-18)
(6.34036 2.07087 0)
(6.95374 2.26841 -3.22404e-19)
(7.61488 2.50109 -7.42091e-18)
(8.26392 2.72669 3.09658e-18)
(8.93795 2.91647 -1.80793e-18)
(9.19255 2.98735 -2.01918e-18)
(9.16187 2.943 -2.5303e-19)
(8.88289 2.75048 2.12338e-19)
(8.07356 2.34579 3.38814e-18)
(6.65001 1.85994 5.26758e-18)
(5.20654 1.35322 -3.39582e-18)
(3.87312 0.934263 5.95504e-18)
(2.70231 0.577579 -4.77035e-18)
(1.88176 0.363911 0)
(1.4374 0.272079 -1.18149e-17)
(1.19228 0.256777 1.58386e-17)
(0.723814 0.133184 1.22107e-18)
(-0.309995 -0.0831521 -2.20241e-17)
(4.52531 1.44971 -3.53352e-19)
(5.85706 2.17377 -6.964e-18)
(6.31944 2.29901 -2.47757e-17)
(6.91693 2.53217 1.52005e-17)
(7.56807 2.78511 -4.91754e-18)
(8.19504 3.03135 3.4534e-18)
(8.83984 3.22616 -4.09303e-18)
(9.06562 3.28975 1.28431e-18)
(9.01544 3.22513 -1.23392e-19)
(8.71999 3.01036 -2.26783e-19)
(7.91414 2.57026 -4.25077e-18)
(6.50972 2.04283 -6.20307e-18)
(5.09659 1.49726 3.93768e-18)
(3.7877 1.03325 -2.20939e-18)
(2.73212 0.687733 5.4763e-18)
(2.01936 0.455243 0)
(1.62898 0.371818 -7.71665e-18)
(1.40203 0.375804 1.14532e-17)
(0.952209 0.240564 2.17228e-17)
(-0.182876 -0.0335904 -2.53239e-17)
(4.4742 1.62332 -3.52377e-17)
(5.88012 2.47015 1.78784e-17)
(6.33194 2.60195 1.59911e-17)
(6.88291 2.84398 -1.63102e-17)
(7.49937 3.08698 3.485e-19)
(8.10415 3.32818 7.83174e-18)
(8.72043 3.52654 1.76205e-18)
(8.9216 3.58471 4.15832e-19)
(8.856 3.50021 -9.88228e-19)
(8.54682 3.26251 1.32357e-18)
(7.75428 2.79086 3.64344e-18)
(6.37912 2.2241 9.71459e-18)
(5.02674 1.64113 0)
(3.79279 1.15237 2.08543e-19)
(2.74946 0.749186 -1.57691e-17)
(2.03695 0.542753 3.7409e-18)
(1.67658 0.47381 1.75106e-17)
(1.45644 0.471123 -5.16189e-18)
(1.04557 0.331553 1.08436e-17)
(-0.10154 -0.010502 -8.79076e-19)
(4.35813 1.76322 4.14212e-19)
(5.77084 2.62904 1.54982e-17)
(6.24945 2.75466 1.15976e-17)
(6.78511 3.06015 -2.69903e-17)
(7.40411 3.33771 1.98391e-17)
(7.99128 3.6034 -8.58083e-18)
(8.58207 3.81438 -1.90548e-18)
(8.76481 3.86944 -2.36286e-18)
(8.68814 3.76613 3.01995e-19)
(8.37167 3.50621 -3.22111e-18)
(7.59907 3.00411 0)
(6.26084 2.40184 -4.0854e-18)
(4.95099 1.78281 4.67857e-18)
(3.73916 1.26268 6.02079e-18)
(2.79408 0.88353 -3.55322e-18)
(2.19748 0.667767 -8.35096e-18)
(1.88415 0.598171 -2.53182e-18)
(1.65659 0.629533 -1.47042e-19)
(1.20933 0.440219 0)
(-0.00940184 0.0376273 0)
(4.28558 1.92359 -1.59194e-17)
(5.76354 2.89647 0)
(6.21119 3.02503 1.26056e-17)
(6.70501 3.33122 -5.3856e-18)
(7.29858 3.59841 -2.05463e-17)
(7.86339 3.86654 5.78769e-18)
(8.43023 4.08649 -2.08027e-18)
(8.60413 4.14108 2.06633e-18)
(8.52266 4.0224 -3.37587e-20)
(8.20582 3.74332 -2.1468e-18)
(7.4542 3.21309 2.30344e-18)
(6.15285 2.57957 1.3285e-17)
(4.89328 1.93156 4.06574e-19)
(3.74734 1.38849 -6.49838e-18)
(2.82553 0.969434 1.20253e-17)
(2.21018 0.787627 5.31458e-20)
(1.92445 0.719252 2.71199e-18)
(1.73756 0.732944 -1.33512e-17)
(1.3194 0.557608 1.35903e-17)
(0.0344035 0.0605254 -1.60324e-17)
(4.1402 2.01036 -6.23894e-21)
(5.63247 3.017 0)
(6.09672 3.14385 0)
(6.57756 3.49984 5.28649e-18)
(7.17525 3.8115 7.57888e-18)
(7.72425 4.10831 -5.04666e-18)
(8.27348 4.34051 5.713e-18)
(8.44406 4.39613 0)
(8.36148 4.26719 -5.83701e-19)
(8.04774 3.97284 5.20041e-18)
(7.31492 3.41785 8.19282e-18)
(6.04922 2.75598 -5.07985e-18)
(4.82402 2.08258 -6.24036e-18)
(3.70486 1.51347 1.47127e-17)
(2.87498 1.12422 -4.32711e-18)
(2.37578 0.934726 -5.10887e-18)
(2.10936 0.884827 -3.14536e-18)
(1.87286 0.915436 -1.48675e-17)
(1.40325 0.661848 2.1019e-18)
(0.0466484 0.077857 1.79745e-17)
(4.05531 2.13674 -6.1518e-18)
(5.58357 3.24743 -9.52672e-18)
(6.02242 3.38882 5.01838e-19)
(6.46554 3.72362 3.34151e-21)
(7.04779 4.02257 3.15848e-18)
(7.5799 4.33296 -1.14502e-17)
(8.11654 4.5757 0)
(8.28599 4.63312 -5.53098e-19)
(8.20528 4.49811 4.35381e-19)
(7.8949 4.19313 8.55105e-18)
(7.17773 3.61816 -1.79605e-18)
(5.94547 2.93128 2.33889e-18)
(4.75757 2.2372 0)
(3.69657 1.64864 -8.03083e-18)
(2.8911 1.23652 9.90007e-18)
(2.36539 1.07345 0)
(2.13716 1.00517 -6.90288e-18)
(1.96415 1.03575 2.02534e-17)
(1.48659 0.77563 2.45579e-18)
(0.0521139 0.0802892 -2.26598e-17)
(3.91413 2.2135 -1.30107e-17)
(5.4543 3.35039 1.60635e-17)
(5.89816 3.49365 0)
(6.3302 3.86575 1.21401e-17)
(6.91117 4.19275 0)
(7.43286 4.53198 1.15807e-17)
(7.96009 4.79016 0)
(8.12826 4.85099 0)
(8.04933 4.71274 -7.65763e-19)
(7.74105 4.40072 -8.56121e-18)
(7.03879 3.81046 -1.54663e-17)
(5.84085 3.10229 3.03875e-18)
(4.68155 2.38988 1.13284e-17)
(3.65504 1.78708 9.10728e-18)
(2.92951 1.40525 -3.20723e-17)
(2.51202 1.2376 -1.27793e-17)
(2.27781 1.19029 7.49645e-18)
(2.02222 1.20824 0)
(1.4987 0.857915 2.14406e-17)
(0.0342885 0.079666 -2.4956e-17)
(3.83374 2.30764 1.39728e-17)
(5.38971 3.54876 -1.72512e-17)
(5.80901 3.71552 0)
(6.21667 4.06583 -3.37722e-19)
(6.7817 4.36935 -4.99248e-18)
(7.28695 4.7141 0)
(7.80478 4.98393 -1.33864e-18)
(7.97184 5.04966 4.44697e-19)
(7.89373 4.9101 -3.51557e-19)
(7.58741 4.59414 6.53867e-19)
(6.89938 3.99337 0)
(5.73416 3.26835 1.24896e-17)
(4.59871 2.53944 2.95374e-19)
(3.61926 1.92609 4.99021e-18)
(2.92049 1.54034 5.83553e-18)
(2.47278 1.38156 0)
(2.29032 1.30281 -1.2594e-17)
(2.10215 1.33025 2.4789e-17)
(1.5165 0.949436 -2.62284e-17)
(0.0018881 0.0621462 5.49992e-17)
(3.7131 2.38102 0)
(5.26893 3.64127 0)
(5.69046 3.80716 -9.38418e-18)
(6.09088 4.19308 0)
(6.64806 4.51743 0)
(7.14335 4.87906 1.30492e-17)
(7.65138 5.15972 -1.41775e-18)
(7.81578 5.23033 8.05462e-19)
(7.73827 5.09061 2.50172e-19)
(7.43428 4.77285 0)
(6.75929 4.16479 -2.66175e-18)
(5.6256 3.42784 -1.03638e-17)
(4.51148 2.68549 -1.27748e-17)
(3.57055 2.06632 -5.20319e-18)
(2.94582 1.70955 6.50489e-18)
(2.58689 1.57261 -1.52605e-17)
(2.3765 1.50403 2.75241e-17)
(2.09586 1.4792 2.811e-19)
(1.46808 0.995193 -2.48515e-17)
(-0.0520659 0.0372532 -3.81848e-18)
(3.64428 2.46224 0)
(5.20376 3.81756 -1.27175e-17)
(5.60304 4.00325 1.03886e-17)
(5.98395 4.37155 0)
(6.52587 4.67557 0)
(7.00743 5.03369 -2.79033e-17)
(7.50331 5.31984 0)
(7.66435 5.39485 0)
(7.58729 5.25588 -1.20107e-18)
(7.28582 4.93818 2.05352e-18)
(6.62137 4.32527 -2.17926e-17)
(5.51534 3.57928 0)
(4.42153 2.82791 -1.40895e-17)
(3.51916 2.20926 2.79347e-19)
(2.91218 1.85593 -2.10131e-17)
(2.517 1.71233 8.24693e-18)
(2.34459 1.62021 1.51936e-19)
(2.12812 1.57905 -2.96808e-17)
(1.39207 1.02344 1.3222e-17)
(-0.117388 -0.00623415 4.08433e-18)
(3.54385 2.52919 0)
(5.09697 3.90026 -1.40337e-17)
(5.49579 4.08326 1.07835e-17)
(5.8698 4.48393 2.36412e-17)
(6.40494 4.81062 5.27143e-18)
(6.87824 5.17971 -3.20186e-18)
(7.36115 5.46966 2.57651e-18)
(7.51755 5.54634 -6.18033e-18)
(7.44165 5.40786 1.28734e-18)
(7.14194 5.09096 1.27683e-17)
(6.48583 4.47472 1.81802e-17)
(5.40653 3.7225 3.51115e-18)
(4.33374 2.96555 2.03195e-17)
(3.4712 2.35595 1.26244e-17)
(2.91734 2.02568 1.51076e-17)
(2.59663 1.9128 -9.12727e-18)
(2.39828 1.8221 -1.09088e-17)
(2.09073 1.71126 1.29177e-17)
(1.29491 1.01628 -7.33036e-18)
(-0.214204 -0.0522436 1.34505e-17)
(3.49229 2.60418 1.88923e-17)
(5.03742 4.05975 2.23618e-17)
(5.41511 4.25549 5.60359e-18)
(5.77518 4.64039 5.06595e-20)
(6.29799 4.95334 -1.78243e-17)
(6.76002 5.31903 7.91085e-18)
(7.2292 5.61034 -2.76094e-18)
(7.37977 5.68699 5.76985e-20)
(7.30447 5.54852 -2.10246e-18)
(7.00488 5.23257 -1.44112e-17)
(6.35565 4.61444 1.11521e-18)
(5.30043 3.85771 0)
(4.25049 3.0979 0)
(3.4192 2.50889 -6.57008e-18)
(2.86122 2.18914 -2.45998e-17)
(2.49261 2.04501 1.97838e-17)
(2.32367 1.91772 1.18908e-17)
(2.05691 1.77897 0)
(1.16019 0.99368 2.4079e-17)
(-0.309514 -0.143483 -1.4704e-17)
(3.41548 2.66923 -9.91824e-18)
(4.94666 4.13643 8.28508e-18)
(5.32427 4.32867 -1.24186e-17)
(5.67835 4.73838 -1.41284e-17)
(6.19375 5.0753 -6.55681e-18)
(6.64961 5.45236 2.30507e-18)
(7.1053 5.74591 0)
(7.25016 5.82046 7.40978e-18)
(7.17503 5.67996 -2.71965e-19)
(6.87408 5.36412 0)
(6.23183 4.74533 0)
(5.20031 3.98574 2.43619e-18)
(4.17168 3.22494 3.33868e-18)
(3.36944 2.66087 -7.06162e-18)
(2.84381 2.37015 1.76867e-17)
(2.5372 2.24784 -2.14295e-17)
(2.3278 2.10857 -2.54042e-17)
(1.95989 1.8496 2.30051e-17)
(0.963823 0.91613 -9.04975e-18)
(-0.344985 -0.340767 5.27017e-18)
(3.38494 2.74723 1.09014e-17)
(4.89465 4.27931 0)
(5.2585 4.48337 0)
(5.59904 4.87689 -4.68982e-18)
(6.10419 5.20335 3.79033e-18)
(6.55132 5.57956 -1.94419e-19)
(6.99288 5.87444 -9.40739e-18)
(7.13374 5.94909 -8.85474e-18)
(7.0559 5.80468 3.5802e-18)
(6.75277 5.48791 -1.34334e-18)
(6.11771 4.86926 3.13566e-18)
(5.10955 4.10985 -2.11253e-17)
(4.09918 3.34937 -2.15643e-17)
(3.31447 2.81349 -3.73966e-18)
(2.7738 2.54941 0)
(2.40263 2.40891 -2.42767e-19)
(2.17926 2.19041 1.36095e-17)
(1.83595 1.83526 -2.46683e-17)
(0.902125 0.753927 1.9034e-17)
(-0.271453 -0.47528 1.70984e-17)
(3.33101 2.816 -2.33289e-17)
(4.81964 4.34903 -9.55535e-18)
(5.18407 4.55015 6.68508e-20)
(5.51875 4.96489 5.49304e-18)
(6.01749 5.31434 0)
(6.45918 5.7036 1.90511e-17)
(6.88655 6.00073 1.15882e-17)
(7.02435 6.07653 -1.11501e-18)
(6.94191 5.92746 -1.58093e-18)
(6.6366 5.60925 -1.31357e-18)
(6.00916 4.99174 1.21617e-18)
(5.02109 4.2325 1.84896e-17)
(4.03262 3.48173 2.09164e-17)
(3.25853 2.97371 3.60237e-18)
(2.73894 2.74466 1.82373e-17)
(2.41419 2.6246 0)
(2.13382 2.39878 0)
(1.59469 1.87923 1.58373e-17)
(0.363366 0.608764 -6.21581e-20)
(-0.121155 0.61027 -1.72356e-17)
(3.31586 2.89568 1.24871e-17)
(4.77609 4.47864 2.94494e-17)
(5.13034 4.68998 -4.54042e-17)
(5.45192 5.09001 2.82971e-17)
(5.94123 5.43132 -3.61662e-18)
(6.37388 5.8228 2.345e-17)
(6.78717 6.12302 0)
(6.91974 6.20217 8.40571e-18)
(6.83249 6.05081 0)
(6.52521 5.73166 1.4996e-17)
(5.90546 5.11726 -1.84731e-18)
(4.93725 4.35911 2.06599e-18)
(3.96695 3.62185 2.3909e-17)
(3.20376 3.15479 -7.72758e-18)
(2.67482 2.96225 -9.4401e-18)
(2.2528 2.85479 0)
(1.86374 2.59255 0)
(1.06253 1.82139 0)
(0.385326 1.31133 -8.83873e-18)
(0.225661 2.36568 -5.51514e-18)
(3.27905 2.96746 0)
(4.71467 4.54249 0)
(5.06882 4.75118 1.61222e-17)
(5.38286 5.16887 -2.37044e-17)
(5.86581 5.53169 1.68171e-17)
(6.29143 5.9374 -2.15362e-17)
(6.69038 6.24207 -1.17015e-18)
(6.81587 6.32365 9.08151e-19)
(6.72713 6.17325 6.27212e-19)
(6.41783 5.85311 -1.71382e-17)
(5.80643 5.24324 3.05944e-18)
(4.85801 4.48961 1.87076e-17)
(3.90045 3.76655 -2.38139e-17)
(3.15641 3.34804 -2.60315e-17)
(2.64465 3.19944 8.87737e-18)
(2.26825 3.11193 0)
(1.79853 2.74404 1.26937e-17)
(1.07487 2.02741 1.41159e-17)
(0.548518 2.31844 -1.81333e-17)
(0.518658 2.94817 2.15683e-17)
(3.2742 3.04338 0)
(4.67985 4.66032 2.28646e-17)
(5.02574 4.87935 -4.16584e-18)
(5.32643 5.28368 2.87885e-17)
(5.79917 5.63743 -1.76686e-17)
(6.2139 6.04554 0)
(6.59799 6.35442 0)
(6.71597 6.43994 0)
(6.62677 6.29367 -1.01639e-19)
(6.31564 5.97362 4.51689e-19)
(5.71151 5.36805 0)
(4.78075 4.62075 -1.84849e-17)
(3.84077 3.91711 0)
(3.12702 3.55215 1.86394e-17)
(2.62189 3.44134 -1.28715e-17)
(2.1581 3.34629 -1.02684e-17)
(1.5335 2.94009 -2.20204e-17)
(1.00386 2.55049 -1.40832e-17)
(0.674987 3.05421 -2.49555e-17)
(0.709254 3.32018 2.09203e-17)
(3.24798 3.11249 -7.61852e-18)
(4.63143 4.71833 1.83236e-19)
(4.97533 4.93588 -4.35328e-18)
(5.26834 5.35738 -2.28231e-17)
(5.73429 5.73011 0)
(6.13966 6.15069 0)
(6.50824 6.46364 0)
(6.61908 6.55289 -3.60676e-19)
(6.52783 6.41041 -2.27695e-19)
(6.21605 6.0926 0)
(5.6179 5.49068 0)
(4.70357 4.74995 0)
(3.78994 4.07464 0)
(3.10489 3.7616 1.41754e-17)
(2.61133 3.68906 3.48953e-17)
(2.17766 3.5875 1.06925e-17)
(1.63406 3.10218 2.27676e-17)
(1.30748 3.01861 -2.12839e-17)
(0.975338 3.54269 8.04003e-18)
(0.861507 3.64599 0)
(3.24775 3.17828 7.39686e-18)
(4.60336 4.82984 -4.57921e-17)
(4.93918 5.05736 -1.32943e-17)
(5.22055 5.46906 -3.34678e-18)
(5.67451 5.8319 4.15709e-18)
(6.06653 6.25241 -2.94266e-17)
(6.4205 6.5678 2.0014e-18)
(6.52464 6.66257 1.12295e-17)
(6.43047 6.52466 0)
(6.11838 6.20992 -1.22664e-18)
(5.52551 5.61155 1.11875e-18)
(4.62883 4.87695 0)
(3.74944 4.23552 0)
(3.10166 3.97566 -1.77206e-17)
(2.63145 3.92666 3.41606e-18)
(2.15788 3.7808 -1.00599e-17)
(1.54469 3.36613 2.27051e-17)
(1.11925 3.57856 2.02817e-17)
(0.923526 3.88933 -3.42509e-17)
(0.841445 3.93539 1.80121e-17)
(3.22097 3.24461 1.32427e-17)
(4.55665 4.88767 4.25535e-17)
(4.88951 5.11307 1.62096e-17)
(5.16274 5.54403 0)
(5.60734 5.92593 0)
(5.98884 6.35634 2.22446e-17)
(6.328 6.67318 -1.29633e-17)
(6.42558 6.77202 -1.03516e-17)
(6.32968 6.63905 -3.08915e-19)
(6.01729 6.32645 1.20504e-17)
(5.4313 5.73179 -2.20476e-17)
(4.55775 5.00463 0)
(3.71854 4.39929 0)
(3.11043 4.19021 -1.29699e-17)
(2.65576 4.16513 -1.63474e-17)
(2.17086 3.99618 0)
(1.70319 3.67338 -3.24831e-17)
(1.41371 3.93936 -6.08667e-18)
(1.25666 4.31078 3.56029e-17)
(0.982565 4.32568 -1.8587e-17)
(3.21695 3.3063 -2.50285e-17)
(4.52019 5.00045 -2.01513e-17)
(4.84372 5.23657 0)
(5.1027 5.65776 0)
(5.5332 6.02965 0)
(5.9018 6.45911 0)
(6.22685 6.7768 1.37376e-17)
(6.31945 6.88019 -1.21476e-17)
(6.22294 6.75207 0)
(5.91207 6.44137 -1.07184e-17)
(5.33613 5.85088 3.99884e-17)
(4.49115 5.13235 1.75815e-18)
(3.69699 4.56307 2.66274e-18)
(3.13698 4.40255 2.20868e-17)
(2.71052 4.38611 -1.46118e-17)
(2.20304 4.15985 0)
(1.80353 3.99264 1.07192e-17)
(1.41814 4.48961 5.64977e-19)
(1.04947 4.65159 -5.73356e-18)
(0.666835 4.73975 1.12447e-17)
(3.17368 3.36601 1.16812e-17)
(4.45947 5.04899 -1.91461e-17)
(4.77764 5.28165 0)
(5.02512 5.724 -5.23669e-18)
(5.44597 6.11947 1.99682e-17)
(5.80484 6.56107 0)
(6.1156 6.88084 0)
(6.20382 6.9868 2.1811e-17)
(6.10774 6.862 -3.01328e-19)
(5.80076 6.55308 1.05085e-17)
(5.23926 5.968 -1.90211e-17)
(4.42798 5.25904 1.30919e-17)
(3.68521 4.72616 0)
(3.17399 4.60562 -1.21718e-17)
(2.75895 4.59098 7.45187e-18)
(2.29546 4.40629 8.24154e-18)
(1.91424 4.33865 0)
(1.60091 4.75197 5.49776e-18)
(1.20188 5.27732 9.69239e-18)
(1.07608 5.45831 2.78359e-18)
(3.15553 3.42902 -2.19362e-17)
(4.40594 5.16432 2.72988e-17)
(4.71479 5.40743 2.07177e-17)
(4.94598 5.83589 -5.46642e-18)
(5.35072 6.21915 -3.01208e-17)
(5.69758 6.66044 0)
(5.99513 6.98138 1.06797e-17)
(6.08014 7.09009 -8.91301e-18)
(5.9862 6.96872 -6.63545e-19)
(5.68614 6.66136 -9.1616e-18)
(5.14211 6.08133 -8.77004e-19)
(4.3673 5.38142 -1.46445e-17)
(3.6792 4.88364 1.80347e-17)
(3.21768 4.79451 5.64566e-18)
(2.83897 4.78364 -1.31346e-17)
(2.38199 4.56797 1.50209e-17)
(2.09199 4.53351 0)
(1.83417 5.35619 0)
(1.57269 5.80828 2.59043e-18)
(0.507121 5.85206 -7.51811e-18)
(3.09295 3.47888 1.05925e-17)
(4.32787 5.21094 2.53808e-17)
(4.6308 5.44646 -1.99994e-17)
(4.84854 5.89599 1.98546e-17)
(5.24437 6.30463 2.87318e-17)
(5.58364 6.75989 0)
(5.86692 7.08208 -1.14623e-17)
(5.94943 7.19093 -1.0666e-17)
(5.85938 7.07151 0)
(5.56886 6.76534 0)
(5.04438 6.18886 0)
(4.30934 5.49767 0)
(3.67819 5.03302 -2.0557e-17)
(3.2656 4.96321 -7.87083e-18)
(2.9086 4.93876 0)
(2.52368 4.76071 -7.3774e-18)
(2.34532 4.97306 0)
(2.3968 5.34829 -3.43816e-18)
(2.44579 5.28863 5.32359e-18)
(1.35768 5.31689 -2.66199e-18)
(3.05679 3.55038 -1.99199e-17)
(4.25379 5.33773 -1.5969e-17)
(4.54956 5.58302 -1.23118e-17)