/*--------------------------------*- C++ -*----------------------------------*\
| =========                 |                                                 |
| \\      /  F ield         | OpenFOAM: The Open Source CFD Toolbox           |
|  \\    /   O peration     | Version:  2412                                  |
|   \\  /    A nd           | Website:  www.openfoam.com                      |
|    \\/     M anipulation  |                                                 |
\*---------------------------------------------------------------------------*/
FoamFile
{
    version     2.0;
    format      ascii;
    arch        "LSB;label=32;scalar=64";
    class       volScalarField;
    location    "0.02";
    object      epsilon;
}
// * * * * * * * * * * * * * * * * * * * * * * * * * * * * * * * * * * * * * //

dimensions      [0 2 -3 0 0 0 0];

internalField   nonuniform List<scalar> 
12225
(
448.241
622.869
830.637
1005.01
1150.7
1270.63
1369.15
1450.27
1517.08
1572.12
1617.46
1654.7
1685.13
1709.73
1729.27
1744.28
1756.1
1770.36
173.709
302.1
403.194
480.346
539.592
586.032
622.563
651.381
674.189
692.251
706.524
717.757
726.536
733.317
738.48
742.209
745.128
744.103
119.447
232.459
315.609
376.405
421.375
455.314
480.992
500.404
515.066
526.088
534.294
540.313
544.63
547.625
549.609
550.791
551.497
550.777
97.6585
200.036
277.862
334.959
376.95
408.095
431.165
448.163
460.6
469.589
475.956
480.329
483.188
484.911
485.803
486.114
486.158
485.822
83.6683
176.335
251.647
308.649
351.24
382.909
406.307
423.448
435.865
444.711
450.854
454.956
457.527
458.968
459.61
459.739
459.686
459.602
72.0048
154.007
226.362
283.897
328.297
361.974
387.217
405.939
419.654
429.539
436.504
441.254
444.339
446.197
447.19
447.64
447.88
448.118
61.3546
131.306
198.659
255.624
301.602
337.672
365.471
386.627
402.537
414.343
422.964
429.132
433.431
436.335
438.238
439.486
440.403
441.183
51.6778
108.747
168.507
222.652
268.78
306.598
336.861
360.708
379.274
393.573
404.469
412.68
418.8
423.322
426.659
429.172
431.167
432.796
43.2286
87.6558
137.694
186.328
230.297
268.239
299.989
326.046
347.144
364.052
377.494
388.114
396.47
403.042
408.24
412.419
415.862
418.671
36.1741
69.2471
108.633
149.491
188.731
224.508
255.959
282.948
305.732
324.748
340.494
353.467
364.133
372.913
380.183
386.265
391.407
395.655
30.5014
54.1411
83.3244
115.297
147.779
179.058
207.994
234.014
256.955
276.903
294.085
308.798
321.362
332.096
341.298
349.23
356.089
361.853
26.3785
43.198
64.2765
88.2191
113.607
139.191
163.952
187.196
208.535
227.814
245.033
260.296
273.766
285.636
296.105
305.359
313.526
320.506
23.1437
34.7459
49.3055
66.2481
84.8353
104.321
123.986
143.228
161.613
178.864
194.834
209.475
222.809
234.907
245.864
255.778
264.704
272.48
20.3789
27.6929
36.7442
47.4081
59.4092
72.4242
86.0859
100.023
113.911
127.489
140.566
153.015
164.76
175.77
186.044
195.595
204.406
212.27
18.1501
22.2389
27.1419
32.8981
39.4601
46.7477
54.645
63.0054
71.6728
80.499
89.3516
98.1189
106.711
115.061
123.119
130.844
138.183
144.931
16.4706
18.3553
20.5222
23.0172
25.8541
29.036
32.5543
36.3842
40.4875
44.8191
49.3301
53.9713
58.6952
63.4575
68.218
72.9385
77.5713
81.9841
15.328
15.872
16.4928
17.207
18.0219
18.9435
19.9776
21.1269
22.3907
23.765
25.2433
26.8169
28.4754
30.2068
31.997
33.8309
35.6904
37.5334
14.7507
14.6754
14.636
14.6336
14.6669
14.7352
14.8385
14.977
15.1508
15.3596
15.603
15.8803
16.1905
16.532
16.904
17.3052
17.7329
18.1838
14.8979
14.9741
15.0894
15.2473
15.4482
15.692
15.9793
16.3101
16.6839
17.0993
17.5546
18.0474
18.5751
19.1346
19.7226
20.3359
20.9701
21.6127
15.9715
17.2635
18.7339
20.4101
22.2995
24.4025
26.7135
29.2184
31.8945
34.7148
37.6496
40.6687
43.7426
46.8439
49.9476
53.0316
56.0711
59.0011
18.051
22.0027
26.7054
32.1799
38.3658
45.17
52.4714
60.1263
67.9861
75.9124
83.7851
91.5045
98.9924
106.191
113.06
119.574
125.713
131.425
21.5652
30.6621
41.9464
55.0912
69.5951
84.9434
100.629
116.193
131.272
145.608
159.034
171.459
182.85
193.216
202.594
211.04
218.614
225.352
27.2208
45.3124
67.8213
93.0128
119.242
145.222
169.973
192.854
213.538
231.93
248.077
262.117
274.229
284.615
293.474
300.997
307.356
312.704
35.7162
67.6895
105.719
145.037
182.669
216.979
247.158
273.03
294.819
312.927
327.811
339.929
349.705
357.514
363.685
368.496
372.185
374.973
47.4086
97.6234
152.067
202.766
246.983
284.079
314.336
338.543
357.637
372.504
383.922
392.55
398.934
403.522
406.674
408.685
409.796
410.239
61.8882
131.763
198.731
254.85
299.903
335.167
362.241
382.725
398.007
409.213
417.24
422.794
426.426
428.57
429.561
429.664
429.094
428.062
78.4672
165.772
239.658
296.7
339.775
371.957
395.762
413.165
425.698
434.532
440.553
444.428
446.666
447.657
447.698
447.019
445.803
444.234
99.5951
200.968
279.455
337.76
380.358
411.669
434.711
451.546
463.72
472.389
478.402
482.389
484.826
486.073
486.409
486.048
485.157
483.906
144.747
258.248
348.531
417.469
468.271
506.476
535.517
557.605
574.413
587.187
596.84
604.053
609.352
613.14
615.733
617.382
618.278
618.622
366.94
498.379
666.449
807.797
923.062
1016.1
1090.91
1151.31
1200.31
1240.16
1272.64
1299.19
1320.91
1338.7
1353.26
1365.16
1374.83
1382.7
11.6579
9.97829
12.7159
14.5229
16.4041
19.1603
22.1876
25.271
28.3986
31.6845
35.3402
39.6881
44.725
50.3717
56.744
63.9195
71.9688
80.9467
90.8864
101.798
113.667
126.459
140.122
154.591
169.791
185.642
202.064
218.976
236.298
253.957
271.882
290.008
308.272
326.619
344.995
363.351
381.643
399.828
417.868
435.728
453.377
470.789
487.943
504.829
521.442
537.794
553.913
569.849
585.686
601.545
617.296
632.375
646.739
660.339
673.109
684.976
695.859
705.675
714.337
721.756
727.841
732.499
735.634
737.152
736.957
734.953
731.049
725.157
717.194
707.088
694.781
680.23
663.417
644.349
623.071
599.671
574.296
547.181
518.7
489.471
460.627
433.77
410.723
388.471
365.699
342.456
318.994
295.613
272.615
250.289
228.895
208.66
189.765
172.346
156.49
142.237
129.582
118.483
108.864
100.626
93.6523
87.815
82.9828
79.0252
75.8165
73.239
71.1852
69.5574
68.2636
67.2223
66.371
65.6637
65.0665
64.5543
64.1084
63.7154
63.3653
63.0507
62.7662
62.5079
62.2725
62.0578
61.8621
61.6838
61.522
61.3756
61.2441
61.1266
61.0228
60.9319
60.8534
60.7866
60.7312
60.6863
60.6514
60.626
60.6094
60.6012
60.6007
60.6075
60.621
60.641
60.6669
60.6984
60.7352
60.7768
60.823
60.8734
60.9279
60.9884
61.059
61.1391
61.2284
61.326
61.4313
61.5438
61.6629
61.7883
61.9196
62.0562
62.1975
62.3431
62.492
62.6437
62.7969
62.9506
63.1031
63.2524
63.3959
63.53
63.6499
63.749
63.8181
63.8435
63.8054
63.6713
63.3943
62.8668
62.0242
60.1523
33.1566
18.4022
17.4819
19.6922
23.3751
27.8755
33.0089
38.6094
44.5821
50.8824
57.4699
64.279
71.207
78.1476
85.0044
91.694
98.1542
104.346
110.253
115.878
121.238
126.358
131.271
136.008
140.602
145.08
149.468
153.784
158.046
162.263
166.443
170.591
174.708
178.795
182.85
186.872
190.861
194.816
198.738
202.631
206.499
210.352
214.201
218.065
221.964
225.93
230.001
234.225
238.662
243.378
248.503
253.638
258.673
263.574
268.311
272.852
277.163
281.207
284.945
288.337
291.341
293.912
296.006
297.577
298.577
298.96
298.677
297.684
295.934
293.388
290.006
285.759
280.623
274.585
267.648
259.829
251.169
241.733
231.619
220.963
209.932
198.664
187.446
176.443
165.312
154.084
142.863
131.768
120.918
110.422
100.378
90.8716
81.9679
73.7164
66.1485
59.278
53.1028
47.6067
42.7613
38.5285
34.8637
31.7175
29.0384
26.7748
24.8764
23.2957
21.9891
20.9188
20.0731
19.4506
18.9853
18.6247
18.3416
18.1166
17.9356
17.7881
17.6664
17.5648
17.4791
17.406
17.3432
17.2888
17.2414
17.1999
17.1634
17.1315
17.1035
17.0791
17.058
17.04
17.0249
17.0125
17.0028
16.9954
16.9904
16.9876
16.9867
16.9877
16.9905
16.9949
17.0008
17.0082
17.0168
17.0267
17.0378
17.05
17.0633
17.0776
17.0929
17.1092
17.1267
17.1453
17.1652
17.1863
17.2087
17.2325
17.2577
17.2843
17.3126
17.3426
17.3744
17.4082
17.4443
17.4829
17.5246
17.5698
17.6193
17.6739
17.7352
17.805
17.886
17.9822
18.0998
18.2484
18.4441
18.7147
19.1118
19.7335
20.7863
22.7664
61.7009
31.4448
29.3531
31.3428
34.8972
39.4627
44.6685
50.2153
55.8831
61.523
67.0308
72.3265
77.3477
82.0533
86.4247
90.4654
94.1986
97.6613
100.899
103.959
106.887
109.721
112.493
115.227
117.936
120.627
123.304
125.964
128.603
131.218
133.805
136.363
138.895
141.406
143.903
146.398
148.906
151.442
154.023
156.67
159.399
162.232
165.187
168.281
171.531
174.952
178.554
182.349
186.339
190.523
194.861
199.255
203.665
208.062
212.419
216.707
220.894
224.947
228.832
232.513
235.952
239.111
241.949
244.424
246.494
248.115
249.241
249.827
249.828
249.198
247.894
245.876
243.109
239.564
235.219
230.064
224.104
217.355
209.853
201.644
192.785
183.322
173.659
163.87
153.876
143.734
133.537
123.392
113.401
103.666
94.2752
85.3079
76.8296
68.8921
61.5327
54.7745
48.6271
43.0871
38.1399
33.7613
29.9191
26.5753
23.6881
21.2134
19.1069
17.3254
15.8276
14.5755
13.5353
12.6772
11.9744
11.4088
10.9523
10.5829
10.2836
10.0407
9.84336
9.6825
9.55103
9.44323
9.35456
9.28139
9.22084
9.1706
9.12884
9.0941
9.0652
9.04121
9.02137
9.00507
8.9918
8.98114
8.97275
8.96633
8.96164
8.95845
8.95659
8.95589
8.95621
8.95742
8.95942
8.96212
8.96543
8.96931
8.97368
8.97851
8.98375
8.98939
8.99539
9.00174
9.00843
9.01546
9.02283
9.03054
9.03859
9.04701
9.05581
9.06502
9.07466
9.08479
9.09545
9.10671
9.11867
9.13143
9.14515
9.16003
9.17632
9.19439
9.21472
9.23798
9.26516
9.29768
9.33772
9.38871
9.45635
9.55066
9.69043
9.91305
10.3047
11.0478
92.2025
46.1251
41.0026
41.776
44.5807
48.4071
52.7671
57.3278
61.8589
66.2168
70.3228
74.1424
77.6714
80.9274
83.9428
86.7588
89.4198
91.9686
94.4426
96.8718
99.2771
101.671
104.059
106.441
108.811
111.164
113.492
115.79
118.056
120.289
122.492
124.674
126.844
129.018
131.211
133.442
135.73
138.096
140.561
143.143
145.861
148.732
151.77
154.987
158.39
161.985
165.773
169.75
173.909
178.238
182.697
187.24
191.839
196.465
201.091
205.687
210.223
214.666
218.984
223.141
227.103
230.833
234.293
237.445
240.247
242.657
244.632
246.126
247.09
247.478
247.239
246.326
244.693
242.296
239.099
235.072
230.196
224.461
217.872
210.445
202.208
193.276
184.02
174.393
164.431
154.216
143.85
133.441
123.1
112.931
103.032
93.4899
84.382
75.7719
67.7101
60.2332
53.3643
47.1134
41.478
36.4443
31.9888
28.0798
24.6793
21.7449
19.232
17.095
15.2895
13.773
12.5061
11.4528
10.5811
9.86338
9.27635
8.79761
8.40747
8.08975
7.83101
7.62023
7.44838
7.30808
7.19336
7.09937
7.02222
6.95876
6.90646
6.86328
6.82759
6.79808
6.77367
6.7535
6.73689
6.72326
6.71213
6.70314
6.69595
6.6903
6.68597
6.68276
6.68052
6.6791
6.67839
6.67831
6.67875
6.67965
6.68096
6.68262
6.68459
6.68684
6.68934
6.69208
6.69502
6.69817
6.70151
6.70504
6.70875
6.71265
6.71673
6.721
6.72549
6.7302
6.73515
6.74039
6.74594
6.75187
6.75824
6.76515
6.77273
6.78115
6.79063
6.80152
6.81427
6.82957
6.84844
6.87249
6.90434
6.9485
7.01313
7.11408
7.28379
7.58335
125.348
58.292
49.9495
49.5313
51.4584
54.3918
57.7885
61.3321
64.8255
68.1584
71.2842
74.1986
76.9225
79.4903
81.941
84.3127
86.6381
88.9428
91.2445
93.5525
95.8698
98.1935
100.517
102.833
105.132
107.406
109.65
111.863
114.045
116.2
118.339
120.472
122.614
124.784
127.001
129.285
131.657
134.137
136.746
139.502
142.421
145.517
148.802
152.283
155.964
159.845
163.923
168.189
172.632
177.237
181.968
186.793
191.683
196.609
201.543
206.454
211.311
216.084
220.739
225.245
229.57
233.681
237.545
241.128
244.393
247.303
249.816
251.89
253.477
254.53
254.995
254.819
253.947
252.327
249.906
246.641
242.493
237.433
231.446
224.528
216.703
208.261
199.251
189.704
179.692
169.308
158.659
147.861
137.027
126.271
115.7
105.414
95.5023
86.0423
77.0993
68.7253
60.9587
53.824
47.3327
41.4831
36.2622
31.646
27.6021
24.0909
21.0679
18.4859
16.2967
14.453
12.9098
11.6249
10.5604
9.68215
8.96066
8.3706
7.8894
7.49754
7.17876
6.91955
6.70879
6.53736
6.39782
6.28409
6.19128
6.11542
6.05329
6.00234
5.96048
5.92605
5.8977
5.87434
5.85511
5.83929
5.8263
5.81568
5.80704
5.80006
5.79447
5.79007
5.78665
5.78408
5.78222
5.78097
5.78024
5.77994
5.78002
5.78043
5.78111
5.78204
5.78318
5.78451
5.786
5.78765
5.78944
5.79136
5.79341
5.79557
5.79785
5.80026
5.80279
5.80545
5.80826
5.81123
5.81439
5.81776
5.82138
5.82531
5.82962
5.83441
5.83982
5.84603
5.85331
5.86206
5.87285
5.8866
5.90477
5.9298
5.96594
6.02105
6.10932
6.25406
152.732
67.116
55.8663
54.3478
55.506
57.7078
60.361
63.1683
65.9643
68.6659
71.2443
73.7044
76.0694
78.3695
80.6344
82.8893
85.1527
87.4357
89.7428
92.0727
94.4197
96.7755
99.1306
101.475
103.802
106.104
108.378
110.626
112.851
115.06
117.266
119.481
121.723
124.01
126.363
128.802
131.348
134.021
136.841
139.825
142.988
146.341
149.894
153.652
157.615
161.781
166.143
170.688
175.402
180.264
185.242
190.303
195.419
200.559
205.692
210.787
215.813
220.741
225.542
230.186
234.649
238.902
242.92
246.676
250.142
253.288
256.079
258.48
260.446
261.933
262.889
263.257
262.977
261.987
260.226
257.633
254.154
249.742
244.366
237.997
230.835
222.914
214.271
204.963
195.068
184.682
173.912
162.874
151.686
140.467
129.334
118.396
107.753
97.4987
87.7114
78.4589
69.7952
61.7609
54.3827
47.6735
41.6329
36.2481
31.4948
27.3392
23.74
20.6501
18.0195
15.7971
13.9327
12.3784
11.09
10.0271
9.15403
8.43976
7.85776
7.3846
7.00054
6.68915
6.43684
6.23244
6.06681
5.93252
5.82352
5.73494
5.66284
5.60406
5.55606
5.5168
5.48465
5.45829
5.43667
5.41892
5.40437
5.39246
5.38273
5.37482
5.36842
5.36327
5.35919
5.35598
5.35352
5.35167
5.35036
5.34948
5.34898
5.34879
5.34888
5.34919
5.34969
5.35036
5.35119
5.35214
5.3532
5.35437
5.35563
5.35699
5.35842
5.35995
5.36156
5.36326
5.36505
5.36695
5.36896
5.37112
5.37343
5.37595
5.3787
5.38176
5.38522
5.38919
5.39385
5.39944
5.40635
5.41515
5.42674
5.44262
5.46529
5.49909
5.55112
5.63148
173.212
72.8095
59.0603
56.5953
57.1616
58.865
61.0538
63.4324
65.8522
68.2431
70.582
72.8726
75.1319
77.381
79.6391
81.921
84.2353
86.585
88.968
91.3783
93.8073
96.2454
98.6826
101.11
103.521
105.911
108.279
110.627
112.96
115.287
117.621
119.976
122.369
124.819
127.347
129.973
132.717
135.6
138.639
141.852
145.252
148.849
152.651
156.659
160.872
165.284
169.882
174.651
179.57
184.613
189.747
194.938
200.156
205.368
210.54
215.641
220.642
225.514
230.233
234.778
239.127
243.264
247.172
250.835
254.236
257.356
260.172
262.657
264.778
266.495
267.759
268.516
268.704
268.255
267.098
265.159
262.367
258.658
254.004
248.476
242.081
234.838
226.779
217.956
208.442
198.324
187.703
176.693
165.411
153.978
142.515
131.139
119.96
109.082
98.5974
88.5885
79.1248
70.2631
62.0466
54.5041
47.6506
41.487
36.0008
31.1675
26.952
23.3111
20.1954
17.5522
15.3279
13.4696
11.9272
10.6544
9.60935
8.75506
8.05965
7.49542
7.03862
6.66942
6.37137
6.13093
5.93701
5.78057
5.65429
5.55225
5.46969
5.40279
5.34848
5.30432
5.26835
5.23901
5.21505
5.19546
5.17945
5.16636
5.15567
5.14697
5.1399
5.13418
5.12959
5.12593
5.12306
5.12083
5.11914
5.11791
5.11706
5.11653
5.11626
5.11622
5.11636
5.11667
5.11711
5.11767
5.11833
5.11908
5.11991
5.12082
5.12179
5.12282
5.12392
5.12508
5.12631
5.12761
5.12899
5.13047
5.13205
5.13377
5.13566
5.13775
5.14011
5.14282
5.146
5.14983
5.15456
5.16057
5.16849
5.1793
5.19457
5.21694
5.25037
5.29967
187.102
75.9278
60.15
56.904
57.0341
58.4305
60.3758
62.56
64.8346
67.1309
69.4239
71.712
74.0049
76.3158
78.6562
81.0342
83.4534
85.9128
88.4077
90.9309
93.4734
96.0256
98.5784
101.124
103.657
106.173
108.673
111.159
113.637
116.116
118.609
121.129
123.695
126.325
129.038
131.856
134.798
137.883
141.13
144.553
148.166
151.977
155.991
160.207
164.619
169.217
173.984
178.898
183.932
189.055
194.228
199.42
204.594
209.716
214.75
219.666
224.436
229.035
233.444
237.649
241.639
245.407
248.949
252.261
255.341
258.183
260.779
263.116
265.17
266.913
268.306
269.297
269.826
269.822
269.208
267.901
265.807
262.914
259.175
254.57
249.084
242.713
235.476
227.407
218.564
209.019
198.863
188.198
177.138
165.8
154.305
142.773
131.321
120.061
109.096
98.5212
88.4211
78.868
69.9214
61.6276
54.0181
47.1101
40.9058
35.3933
30.5477
26.3328
22.7037
19.6089
16.9934
14.8014
12.978
11.4715
10.2341
9.22299
8.40079
7.73478
7.19683
6.76333
6.41462
6.13446
5.90955
5.72903
5.5841
5.46767
5.37403
5.2986
5.23776
5.18858
5.14875
5.11644
5.09018
5.06882
5.05141
5.03722
5.02566
5.01624
5.00859
5.00239
4.99738
4.99336
4.99016
4.98763
4.98567
4.98418
4.98308
4.9823
4.98179
4.98151
4.98141
4.98147
4.98167
4.98197
4.98237
4.98285
4.9834
4.98402
4.98469
4.98541
4.98618
4.987
4.98787
4.98879
4.98978
4.99082
4.99195
4.99317
4.99451
4.99599
4.99767
4.99959
5.00185
5.00456
5.00793
5.01221
5.01786
5.02554
5.03634
5.05195
5.07477
5.10735
195.226
77.1044
59.7839
55.9102
55.7132
56.9226
58.7604
60.8928
63.1606
65.4884
67.8444
70.2206
72.6198
75.0491
77.5156
80.0237
82.5745
85.1661
87.7933
90.4493
93.1256
95.8136
98.5053
101.194
103.874
106.542
109.199
111.848
114.493
117.144
119.812
122.511
125.259
128.072
130.97
133.973
137.101
140.373
143.805
147.412
151.205
155.191
159.371
163.742
168.292
173.007
177.863
182.831
187.877
192.96
198.044
203.093
208.07
212.936
217.658
222.205
226.551
230.678
234.573
238.23
241.649
244.834
247.794
250.539
253.08
255.428
257.592
259.57
261.357
262.935
264.277
265.341
266.069
266.392
266.232
265.512
264.161
262.116
259.316
255.708
251.252
245.923
239.714
232.641
224.737
216.057
206.674
196.676
186.163
175.246
164.039
152.662
141.234
129.87
118.683
107.777
97.2495
87.1865
77.6641
68.7452
60.4793
52.9009
46.0291
39.8677
34.405
29.6157
25.4624
21.8985
18.8707
16.3222
14.1954
12.4342
10.9858
9.80193
8.83965
8.06097
7.43313
6.92845
6.52375
6.19984
5.94092
5.73412
5.56897
5.43704
5.33158
5.24717
5.1795
5.12515
5.08141
5.04614
5.01763
4.99455
4.97583
4.96063
4.94827
4.93823
4.93007
4.92345
4.9181
4.91378
4.91032
4.90756
4.90538
4.90369
4.90239
4.90142
4.90073
4.90026
4.89998
4.89986
4.89987
4.89999
4.90019
4.90048
4.90083
4.90123
4.90169
4.90219
4.90273
4.90331
4.90393
4.90459
4.90529
4.90605
4.90686
4.90773
4.90869
4.90976
4.91096
4.91235
4.91398
4.91595
4.91839
4.92152
4.92565
4.93128
4.93918
4.9505
4.96681
4.9896
198.469
76.8891
58.5025
54.1399
53.6852
54.7669
56.5608
58.7082
61.0347
63.4535
65.9236
68.429
70.9668
73.5393
76.1505
78.803
81.4976
84.2321
87.0026
89.8028
92.6258
95.464
98.3102
101.158
104.002
106.84
109.672
112.498
115.325
118.159
121.011
123.894
126.824
129.817
132.893
136.069
139.366
142.801
146.39
150.147
154.079
158.193
162.484
166.946
171.562
176.31
181.16
186.075
191.012
195.923
200.776
205.534
210.157
214.609
218.857
222.873
226.636
230.135
233.363
236.325
239.027
241.487
243.724
245.759
247.619
249.327
250.906
252.373
253.736
254.987
256.117
257.1
257.876
258.39
258.579
258.37
257.683
256.437
254.553
251.96
248.593
244.407
239.368
233.468
226.716
219.142
210.797
201.749
192.082
181.892
171.283
160.369
149.264
138.086
126.95
115.967
105.245
94.8826
84.9693
75.5845
66.795
58.6533
51.1966
44.446
38.4058
33.0645
28.3957
24.3609
20.9117
17.9932
15.5473
13.5152
11.8402
10.4694
9.3548
8.45304
7.72673
7.14395
6.67782
6.30593
6.00981
5.77434
5.58723
5.43859
5.32046
5.2265
5.15166
5.09195
5.04421
5.00596
4.97524
4.95051
4.93055
4.91442
4.90136
4.89078
4.88219
4.87524
4.8696
4.86505
4.86138
4.85844
4.85609
4.85424
4.85279
4.85168
4.85084
4.85023
4.84981
4.84954
4.8494
4.84937
4.84943
4.84956
4.84975
4.85
4.85029
4.85062
4.85098
4.85138
4.85181
4.85227
4.85277
4.8533
4.85387
4.8545
4.85518
4.85594
4.85681
4.8578
4.85898
4.86042
4.86221
4.86452
4.86759
4.87181
4.87773
4.88618
4.89828
4.91495
197.563
75.7067
56.7145
51.9912
51.3237
52.2982
54.0632
56.241
58.6421
61.167
63.7644
66.4098
69.0941
71.8154
74.5753
77.3753
80.2163
83.0969
86.0143
88.9638
91.9396
94.9351
97.9438
100.96
103.978
106.995
110.009
113.021
116.035
119.057
122.094
125.16
128.266
131.43
134.668
137.998
141.437
145.004
148.712
152.571
156.59
160.768
165.1
169.572
174.162
178.839
183.567
188.298
192.982
197.572
202.04
206.352
210.471
214.365
218.006
221.371
224.445
227.224
229.71
231.913
233.85
235.542
237.019
238.31
239.446
240.464
241.399
242.282
243.132
243.949
244.74
245.493
246.176
246.748
247.15
247.312
247.156
246.593
245.536
243.898
241.598
238.568
234.753
230.117
224.645
218.34
211.226
203.349
194.769
185.564
175.823
165.646
155.142
144.423
133.603
122.799
112.121
101.68
91.5766
81.9044
72.7465
64.1727
56.2387
48.9837
42.4295
36.5806
31.4247
26.9339
23.0679
19.7768
17.0042
14.6911
12.7784
11.2098
9.93254
8.89851
8.06585
7.39845
6.86559
6.44154
6.10496
5.83835
5.62746
5.46076
5.32902
5.22487
5.14244
5.07711
5.02524
4.98395
4.95101
4.92467
4.90354
4.88655
4.87287
4.86182
4.85289
4.84567
4.83982
4.8351
4.83128
4.82821
4.82574
4.82377
4.82221
4.82099
4.82004
4.81931
4.81878
4.8184
4.81814
4.81799
4.81792
4.81793
4.81799
4.81811
4.81827
4.81846
4.81868
4.81894
4.81922
4.81952
4.81985
4.82021
4.8206
4.82103
4.8215
4.82204
4.82264
4.82335
4.82419
4.82523
4.82654
4.82825
4.83057
4.83377
4.83829
4.84477
4.85401
4.86667
192.953
73.8733
54.7223
49.7602
48.9133
49.781
51.5057
53.6996
56.1618
58.7813
61.4966
64.2744
67.099
69.964
72.8682
75.8121
78.7964
81.8208
84.8834
87.9809
91.1088
94.2616
97.4332
100.618
103.81
107.006
110.203
113.4
116.598
119.801
123.016
126.252
129.52
132.834
136.209
139.66
143.204
146.855
150.625
154.523
158.553
162.711
166.986
171.359
175.802
180.277
184.738
189.131
193.397
197.504
201.431
205.15
208.635
211.862
214.812
217.466
219.819
221.873
223.636
225.123
226.353
227.352
228.149
228.774
229.258
229.644
229.97
230.273
230.583
230.924
231.311
231.747
232.221
232.706
233.158
233.52
233.718
233.669
233.281
232.463
231.121
229.17
226.537
223.162
219.003
214.036
208.258
201.687
194.358
186.325
177.659
168.442
158.77
148.746
138.481
128.087
117.68
107.375
97.2819
87.5065
78.1456
69.2853
60.9983
53.3421
46.3566
40.0636
34.4664
29.5507
25.2867
21.632
18.5349
15.938
13.7821
12.0091
10.5616
9.38796
8.44238
7.68465
7.08028
6.60017
6.22003
5.91985
5.68331
5.49717
5.35081
5.23574
5.14522
5.07395
5.01773
4.97331
4.93811
4.91015
4.88788
4.87009
4.85584
4.84439
4.83517
4.82775
4.82175
4.8169
4.81299
4.80983
4.80728
4.80524
4.8036
4.80229
4.80126
4.80045
4.79983
4.79936
4.799
4.79876
4.79859
4.79849
4.79845
4.79846
4.7985
4.79858
4.79869
4.79883
4.79898
4.79916
4.79936
4.79958
4.79982
4.8001
4.8004
4.80075
4.80116
4.80164
4.80222
4.80296
4.80391
4.80519
4.80694
4.8094
4.81293
4.81801
4.82526
4.83518
184.888
71.7946
52.8003
47.6925
46.6871
47.4379
49.0986
51.2803
53.7756
56.4647
59.2768
62.1701
65.1218
68.1201
71.1603
74.2412
77.3628
80.5249
83.7266
86.9658
90.239
93.5416
96.8681
100.213
103.57
106.934
110.302
113.67
117.037
120.405
123.777
127.159
130.559
133.989
137.459
140.982
144.572
148.24
151.994
155.841
159.779
163.801
167.891
172.026
176.172
180.285
184.314
188.198
191.881
195.355
198.609
201.627
204.397
206.909
209.162
211.129
212.816
214.233
215.392
216.305
216.989
217.464
217.751
217.877
217.872
217.769
217.607
217.423
217.254
217.136
217.097
217.157
217.323
217.59
217.932
218.309
218.663
218.922
219.001
218.808
218.247
217.222
215.645
213.435
210.526
206.871
202.437
197.214
191.21
184.454
176.991
168.885
160.214
151.068
141.547
131.76
121.82
111.844
101.948
92.2458
82.8456
73.8472
65.3391
57.3957
50.0747
43.4154
37.4376
32.1422
27.512
23.5144
20.1046
17.2294
14.8313
12.8518
11.2302
9.91254
8.84937
7.99689
7.3171
6.77756
6.35108
6.01511
5.75115
5.5442
5.38217
5.25541
5.15625
5.07864
5.01782
4.97008
4.93253
4.90291
4.87947
4.86088
4.84608
4.83427
4.82481
4.81722
4.81111
4.80619
4.80221
4.799
4.79641
4.79432
4.79263
4.79127
4.79018
4.78931
4.78862
4.78807
4.78764
4.78731
4.78706
4.78688
4.78675
4.78667
4.78662
4.7866
4.78661
4.78665
4.7867
4.78677
4.78686
4.78697
4.78709
4.78724
4.78741
4.78762
4.78786
4.78817
4.78855
4.78906
4.78974
4.79068
4.79202
4.79394
4.79674
4.8008
4.80663
4.81464
174.641
70.6877
51.4919
46.1155
44.9019
45.4996
47.0609
49.1948
51.689
54.4173
57.3005
60.2887
63.3516
66.4712
69.6382
72.8482
76.0995
79.3912
82.7228
86.0925
89.4977
92.9347
96.3984
99.8834
103.383
106.892
110.405
113.916
117.422
120.921
124.413
127.901
131.389
134.882
138.389
141.918
145.477
149.074
152.712
156.394
160.113
163.86
167.615
171.35
175.031
178.611
182.04
185.257
188.232
190.977
193.491
195.774
197.829
199.658
201.266
202.654
203.826
204.789
205.548
206.109
206.477
206.661
206.67
206.518
206.223
205.811
205.312
204.763
204.204
203.676
203.222
202.876
202.666
202.606
202.697
202.919
203.236
203.593
203.92
204.132
204.136
203.832
203.122
201.911
200.114
197.658
194.487
190.564
185.869
180.403
174.188
167.264
159.689
151.535
142.892
133.856
124.537
115.049
105.509
96.0366
86.7474
77.7525
69.1535
61.0396
53.4851
46.546
40.2589
34.6402
29.6867
25.3773
21.6762
18.5366
15.9055
13.7217
11.9262
10.4629
9.27971
8.32978
7.57184
6.97037
6.49533
6.12166
5.82873
5.5997
5.42102
5.2818
5.17341
5.08902
5.02328
4.97199
4.93192
4.90052
4.87587
4.85644
4.84108
4.82889
4.8192
4.81146
4.80525
4.80027
4.79626
4.79302
4.7904
4.78828
4.78656
4.78517
4.78404
4.78312
4.78237
4.78177
4.78128
4.78088
4.78056
4.7803
4.78009
4.77993
4.7798
4.7797
4.77963
4.77957
4.77954
4.77952
4.77952
4.77953
4.77955
4.7796
4.77966
4.77975
4.77987
4.78003
4.78026
4.78059
4.78107
4.78176
4.78278
4.78431
4.78657
4.7899
4.79471
4.80134
161.13
69.6674
50.7293
45.1267
43.6975
44.1217
45.5566
47.612
50.0746
52.8137
55.744
58.8085
61.9691
65.201
68.4889
71.8238
75.2007
78.617
82.0709
85.5606
89.0837
92.6367
96.2152
99.8137
103.426
107.045
110.663
114.275
117.874
121.454
125.013
128.549
132.06
135.547
139.014
142.462
145.896
149.316
152.722
156.111
159.474
162.797
166.06
169.237
172.295
175.197
177.9
180.354
182.58
184.589
186.397
188.017
189.464
190.752
191.893
192.894
193.758
194.487
195.075
195.515
195.799
195.916
195.859
195.625
195.22
194.655
193.953
193.146
192.275
191.387
190.534
189.768
189.134
188.67
188.4
188.331
188.451
188.726
189.103
189.512
189.865
190.065
190.009
189.593
188.716
187.287
185.229
182.479
178.994
174.75
169.743
163.991
157.529
150.412
142.712
134.514
125.917
117.03
107.969
98.8531
89.803
80.9369
72.3668
64.1942
56.5075
49.3782
42.8586
36.9806
31.7552
27.1739
23.2115
19.8295
16.9787
14.5995
12.6349
11.0281
9.72537
8.67738
7.84012
7.17532
6.65029
6.23757
5.91445
5.66231
5.4661
5.3137
5.1955
5.10387
5.03284
4.97774
4.93493
4.90161
4.8756
4.85525
4.83927
4.82668
4.81672
4.80881
4.8025
4.79746
4.79341
4.79014
4.78751
4.78536
4.78362
4.7822
4.78103
4.78007
4.77928
4.77863
4.77808
4.77763
4.77724
4.77692
4.77664
4.77641
4.77621
4.77603
4.77588
4.77575
4.77564
4.77554
4.77546
4.77539
4.77533
4.77529
4.77526
4.77525
4.77527
4.77533
4.77544
4.77563
4.77595
4.77646
4.77725
4.77848
4.78035
4.78314
4.7872
4.79284
143.22
68.1934
50.3584
44.6968
43.0939
43.3531
44.6572
46.6243
49.0432
51.7818
54.7508
57.8869
61.1446
64.4918
67.906
71.3721
74.8803
78.4243
82
85.6043
89.2342
92.886
96.5555
100.237
103.925
107.61
111.286
114.944
118.576
122.173
125.728
129.234
132.687
136.081
139.413
142.681
145.882
149.011
152.064
155.034
157.909
160.676
163.318
165.813
168.141
170.278
172.202
173.901
175.426
176.795
178.029
179.15
180.182
181.143
182.044
182.891
183.681
184.402
185.036
185.559
185.943
186.159
186.182
185.991
185.578
184.944
184.102
183.083
181.929
180.693
179.437
178.23
177.135
176.212
175.51
175.06
174.873
174.939
175.223
175.667
176.193
176.709
177.109
177.284
177.123
176.523
175.389
173.64
171.213
168.062
164.161
159.506
154.112
148.015
141.268
133.941
126.123
117.911
109.415
100.753
92.0453
83.4144
74.9785
66.8488
59.1249
51.8916
45.2156
39.1432
33.6998
28.8899
24.6999
21.1016
18.0454
15.4809
13.3533
11.6063
10.1852
9.03911
8.12172
7.39238
6.816
6.3629
6.00835
5.73199
5.51728
5.3509
5.2222
5.12278
5.04601
4.98672
4.94089
4.90541
4.87788
4.85646
4.83974
4.82665
4.81636
4.80823
4.80179
4.79665
4.79254
4.78924
4.78657
4.7844
4.78263
4.78118
4.77998
4.77898
4.77814
4.77744
4.77684
4.77633
4.77589
4.7755
4.77517
4.77487
4.7746
4.77436
4.77414
4.77394
4.77376
4.77359
4.77344
4.7733
4.77317
4.77305
4.77295
4.77287
4.77281
4.77278
4.7728
4.77289
4.77309
4.77346
4.77409
4.7751
4.77668
4.77908
4.7826
4.7875
123.53
66.2178
50.3137
44.8418
43.1703
43.3269
44.5439
46.4544
48.8525
51.6071
54.6268
57.8439
61.2071
64.6773
68.225
71.8285
75.4722
79.1452
82.8396
86.5498
90.2713
93.9996
97.73
101.457
105.174
108.874
112.547
116.185
119.778
123.316
126.787
130.183
133.493
136.71
139.825
142.829
145.717
148.479
151.108
153.595
155.928
158.098
160.093
161.901
163.516
164.934
166.16
167.245
168.229
169.136
169.994
170.828
171.662
172.511
173.382
174.271
175.161
176.026
176.83
177.529
178.077
178.429
178.541
178.382
177.931
177.182
176.148
174.86
173.363
171.723
170.013
168.318
166.721
165.303
164.135
163.269
162.737
162.546
162.674
163.075
163.675
164.385
165.098
165.701
166.077
166.114
165.705
164.76
163.198
160.96
158.004
154.307
149.867
144.7
138.845
132.356
125.306
117.783
109.888
101.732
93.4327
85.1127
76.8935
68.892
61.2163
53.9617
47.2067
41.0105
35.4113
30.4268
26.0566
22.2719
19.0382
16.3103
14.0363
12.1614
10.631
9.39308
8.39991
7.60892
6.98306
6.4907
6.10533
5.80503
5.57188
5.39142
5.25208
5.14466
5.06194
4.99825
4.94919
4.91136
4.88214
4.85952
4.84194
4.82825
4.81753
4.80911
4.80247
4.79719
4.79298
4.78961
4.78688
4.78466
4.78285
4.78136
4.78011
4.77907
4.77819
4.77744
4.77679
4.77622
4.77572
4.77528
4.77488
4.77452
4.77419
4.77389
4.77361
4.77335
4.77311
4.77288
4.77266
4.77246
4.77227
4.77209
4.77193
4.77178
4.77166
4.77156
4.77151
4.77153
4.77164
4.77192
4.77242
4.77328
4.77466
4.77677
4.77989
4.78425
103.809
63.4393
50.2919
45.3516
43.7814
43.9478
45.165
47.0907
49.5278
52.3479
55.4587
58.7899
62.2855
65.9009
69.6003
73.3559
77.1463
80.9553
84.7711
88.5848
92.3896
96.1796
99.9495
103.693
107.405
111.077
114.701
118.267
121.766
125.185
128.513
131.74
134.852
137.839
140.689
143.393
145.942
148.324
150.533
152.561
154.399
156.043
157.49
158.743
159.809
160.71
161.482
162.197
162.883
163.57
164.284
165.051
165.888
166.801
167.787
168.825
169.886
170.925
171.891
172.723
173.36
173.745
173.827
173.566
172.94
171.945
170.596
168.931
167.009
164.903
162.705
160.513
158.429
156.551
154.965
153.741
152.92
152.517
152.518
152.876
153.52
154.356
155.276
156.162
156.896
157.36