/*--------------------------------*- C++ -*----------------------------------*\
| =========                 |                                                 |
| \\      /  F ield         | OpenFOAM: The Open Source CFD Toolbox           |
|  \\    /   O peration     | Version:  2412                                  |
|   \\  /    A nd           | Website:  www.openfoam.com                      |
|    \\/     M anipulation  |                                                 |
\*---------------------------------------------------------------------------*/
FoamFile
{
    version     2.0;
    format      ascii;
    arch        "LSB;label=32;scalar=64";
    class       volScalarField;
    location    "0.02";
    object      k;
}
// * * * * * * * * * * * * * * * * * * * * * * * * * * * * * * * * * * * * * //

dimensions      [0 2 -2 0 0 0 0];

internalField   nonuniform List<scalar> 
12225
(
0.31679
0.394477
0.477922
0.542653
0.593889
0.634455
0.666825
0.69289
0.713991
0.731136
0.7451
0.75647
0.765688
0.773089
0.778933
0.783389
0.786858
0.790983
0.569105
0.788977
0.95274
1.06825
1.15155
1.21316
1.25874
1.29238
1.31709
1.335
1.34769
1.35632
1.3618
1.3648
1.36588
1.36532
1.36419
1.36149
0.670128
0.972325
1.18347
1.33235
1.4399
1.51919
1.57765
1.62055
1.65179
1.67419
1.68983
1.70027
1.70671
1.71007
1.71107
1.71027
1.7086
1.70648
0.722188
1.07694
1.32678
1.50484
1.63453
1.73035
1.80121
1.85338
1.89151
1.91898
1.93831
1.95141
1.95973
1.96441
1.96637
1.96637
1.96546
1.96459
0.742852
1.12939
1.41251
1.61855
1.77072
1.884
1.96841
2.03112
2.0774
2.11118
2.13539
2.15226
2.16352
2.17054
2.17441
2.17612
2.17682
2.17762
0.739996
1.13794
1.44664
1.67855
1.8535
1.98564
2.0854
2.16056
2.2169
2.2588
2.28959
2.31181
2.32748
2.33817
2.34519
2.34971
2.35293
2.35593
0.719701
1.10898
1.43157
1.68434
1.88069
2.03228
2.14893
2.23848
2.30698
2.35913
2.39853
2.42805
2.44992
2.46594
2.47763
2.48628
2.49312
2.49907
0.68772
1.05061
1.37205
1.63674
1.85006
2.01966
2.15345
2.2586
2.34098
2.40531
2.45538
2.4942
2.52422
2.54742
2.56546
2.57974
2.59148
2.6014
0.649059
0.97252
1.2768
1.54101
1.76318
1.94621
2.09509
2.21536
2.31215
2.38983
2.45205
2.50187
2.54178
2.57388
2.59992
2.62136
2.63935
2.65439
0.607547
0.884205
1.15762
1.40754
1.62739
1.81588
1.97466
2.10703
2.21672
2.30729
2.38195
2.4435
2.49435
2.53655
2.57184
2.60168
2.62712
2.64841
0.56587
0.793408
1.02693
1.25038
1.45572
1.63918
1.79966
1.9381
2.05648
2.15717
2.24259
2.31501
2.37651
2.42894
2.47388
2.51267
2.54624
2.57456
0.528785
0.712153
0.905233
1.09648
1.27865
1.4474
1.60029
1.73657
1.85671
1.96189
2.05356
2.13332
2.20273
2.26327
2.31627
2.36285
2.40372
2.43852
0.494678
0.637302
0.790591
0.946946
1.10065
1.24782
1.3857
1.51264
1.62803
1.73199
1.8251
1.90818
1.98222
2.04822
2.10714
2.1598
2.20669
2.24709
0.46069
0.562148
0.673108
0.789573
0.9077
1.02462
1.13801
1.24608
1.3477
1.44226
1.52961
1.60984
1.6833
1.75042
1.8117
1.86759
1.91824
1.96261
0.42935
0.492732
0.562731
0.638141
0.71709
0.797913
0.879117
0.959358
1.03755
1.11289
1.18486
1.25312
1.31753
1.37807
1.43479
1.48777
1.53685
1.58081
0.403167
0.435361
0.470904
0.509902
0.551929
0.596454
0.642898
0.690619
0.738976
0.787394
0.835386
0.882556
0.928587
0.97324
1.01633
1.0577
1.09706
1.13333
0.38408
0.39459
0.406429
0.419787
0.434665
0.45102
0.468786
0.487848
0.508045
0.52919
0.55109
0.573549
0.596376
0.619389
0.642405
0.665241
0.687688
0.709207
0.374045
0.373703
0.374073
0.375175
0.376985
0.37948
0.382646
0.386468
0.390922
0.395976
0.401596
0.407739
0.41436
0.421407
0.428838
0.436611
0.444659
0.452888
0.37661
0.37894
0.382027
0.385921
0.390599
0.396026
0.40217
0.408991
0.416432
0.424429
0.432917
0.441827
0.451092
0.460645
0.470426
0.480375
0.490421
0.500359
0.39496
0.417827
0.443072
0.470776
0.500669
0.532397
0.565584
0.599806
0.634629
0.669642
0.70449
0.738871
0.772539
0.805304
0.837022
0.867587
0.896871
0.924409
0.427789
0.489139
0.556408
0.628358
0.703165
0.779202
0.855053
0.929472
1.00146
1.0703
1.13553
1.19687
1.25423
1.3076
1.3571
1.40288
1.44507
1.48366
0.475756
0.595045
0.723799
0.856362
0.987867
1.11501
1.23541
1.34747
1.45038
1.54393
1.62831
1.70399
1.77158
1.83177
1.88526
1.93273
1.97479
2.0119
0.536847
0.728734
0.928769
1.12406
1.30705
1.47406
1.62336
1.75471
1.86898
1.96764
2.05234
2.12477
2.18654
2.23909
2.28372
2.32158
2.35363
2.38067
0.60412
0.87396
1.14023
1.38263
1.59495
1.77685
1.93003
2.05752
2.16285
2.24944
2.32031
2.37809
2.42502
2.46297
2.49348
2.51785
2.53714
2.55226
0.668277
1.00762
1.31643
1.57543
1.78736
1.95849
2.09519
2.20366
2.28934
2.35669
2.40933
2.45016
2.4815
2.50522
2.5228
2.53546
2.54414
2.54972
0.717264
1.09914
1.41414
1.65886
1.84814
1.99409
2.10611
2.19178
2.25697
2.30622
2.34301
2.37003
2.38938
2.40268
2.41123
2.41601
2.41785
2.41746
0.735695
1.11859
1.40726
1.6197
1.77754
1.89553
1.98374
2.04945
2.09806
2.13359
2.15908
2.1768
2.1885
2.19553
2.19892
2.19948
2.19785
2.19462
0.70819
1.04717
1.29066
1.46537
1.59145
1.68389
1.75198
1.80189
1.83815
1.86409
1.88219
1.89425
1.90168
1.90552
1.90659
1.90552
1.90281
1.89892
0.616831
0.86247
1.04877
1.18243
1.27642
1.34448
1.39429
1.43061
1.45689
1.47567
1.48873
1.49741
1.50272
1.50543
1.50613
1.50526
1.5032
1.50033
0.333269
0.408737
0.496123
0.564011
0.616475
0.657247
0.689135
0.714362
0.734505
0.75069
0.763763
0.774369
0.783
0.790038
0.795779
0.800463
0.804262
0.807356
0.0394352
0.0590043
0.0694077
0.0757621
0.0815643
0.0900443
0.0991465
0.108066
0.116716
0.125367
0.134504
0.14482
0.156676
0.169418
0.183269
0.198285
0.214507
0.23194
0.250545
0.270242
0.290922
0.312453
0.33469
0.357486
0.380697
0.404189
0.427838
0.451534
0.475182
0.498698
0.522011
0.545061
0.567797
0.590178
0.612167
0.633735
0.654855
0.675508
0.695675
0.715343
0.734502
0.753145
0.771272
0.788887
0.806004
0.822647
0.838852
0.854677
0.870198
0.885524
0.900803
0.915404
0.929214
0.942215
0.95437
0.965634
0.975953
0.985272
0.993528
1.00066
1.0066
1.01127
1.01461
1.01654
1.01697
1.01583
1.01303
1.00847
1.00207
0.993747
0.983406
0.970967
0.956357
0.939516
0.920399
0.898988
0.875301
0.849411
0.821488
0.791882
0.761334
0.731243
0.703722
0.679114
0.653817
0.627337
0.599785
0.571405
0.542495
0.513375
0.484374
0.45582
0.42803
0.4013
0.375897
0.35205
0.329943
0.309711
0.291436
0.275147
0.260823
0.248395
0.237755
0.228765
0.221261
0.21507
0.210012
0.20591
0.202586
0.199873
0.197625
0.195736
0.194124
0.192727
0.191498
0.190403
0.189416
0.188519
0.187695
0.186936
0.186233
0.185579
0.184969
0.1844
0.183869
0.183373
0.182911
0.182479
0.182078
0.181704
0.181358
0.181037
0.180739
0.180465
0.180211
0.179976
0.17976
0.179561
0.179378
0.179208
0.179053
0.17891
0.178778
0.178656
0.178545
0.178442
0.178347
0.178259
0.178184
0.178129
0.178091
0.17807
0.178063
0.178071
0.178092
0.178124
0.178166
0.178218
0.178278
0.178346
0.178421
0.1785
0.178584
0.178669
0.178755
0.178839
0.178917
0.178986
0.179042
0.179076
0.179081
0.179044
0.178948
0.178768
0.178466
0.177982
0.17723
0.176007
0.174191
0.170427
0.0787775
0.136613
0.176244
0.209539
0.240657
0.269339
0.297418
0.324914
0.351605
0.37746
0.402553
0.426923
0.450537
0.473336
0.495296
0.516424
0.536778
0.556472
0.57566
0.594525
0.613264
0.632071
0.651128
0.670599
0.69062
0.711302
0.732726
0.754951
0.778007
0.801907
0.826649
0.852215
0.87858
0.905709
0.933567
0.962112
0.991302
1.02109
1.05144
1.0823
1.11361
1.14533
1.17741
1.20978
1.24238
1.27515
1.30802
1.34092
1.37379
1.40655
1.43882
1.47079
1.50246
1.53376
1.56455
1.59471
1.6241
1.65256
1.67993
1.70605
1.73074
1.75382
1.77508
1.79432
1.81133
1.82586
1.83769
1.84655
1.85218
1.85432
1.8527
1.84704
1.83708
1.82257
1.80329
1.77907
1.74975
1.71528
1.67563
1.63089
1.58119
1.52663
1.46849
1.40884
1.34649
1.2816
1.21465
1.14623
1.07698
1.00758
0.938694
0.870962
0.805001
0.741377
0.680588
0.62306
0.569132
0.519051
0.472969
0.430947
0.392956
0.358891
0.328584
0.301815
0.278328
0.257847
0.24009
0.224772
0.21161
0.200338
0.190739
0.18264
0.175817
0.170074
0.165241
0.161173
0.157748
0.154861
0.152425
0.150368
0.148627
0.147152
0.145901
0.144837
0.143931
0.143158
0.142498
0.141932
0.141447
0.14103
0.14067
0.140359
0.140088
0.139852
0.139645
0.139462
0.139299
0.139154
0.139022
0.138903
0.138794
0.138692
0.138598
0.13851
0.138426
0.138347
0.138271
0.138198
0.138128
0.138061
0.137996
0.137934
0.137875
0.137818
0.137763
0.137711
0.137661
0.137614
0.13757
0.137528
0.137489
0.137452
0.13742
0.137391
0.137366
0.137346
0.137331
0.137324
0.137326
0.137339
0.137368
0.137417
0.137498
0.137623
0.13782
0.138137
0.138655
0.139618
0.141179
0.145847
0.11866
0.22606
0.286266
0.329809
0.366185
0.39984
0.432019
0.462741
0.491782
0.519055
0.544635
0.568689
0.591439
0.613146
0.634106
0.654643
0.675091
0.69578
0.71701
0.739037
0.76206
0.786214
0.811567
0.838127
0.865848
0.894642
0.924387
0.954947
0.986178
1.01794
1.05012
1.08259
1.1153
1.14818
1.18121
1.21439
1.24773
1.28126
1.31502
1.34906
1.38343
1.41818
1.45334
1.48895
1.52502
1.56154
1.59852
1.63591
1.67368
1.71176
1.74994
1.78822
1.8265
1.86464
1.90247
1.93982
1.97653
2.01238
2.04719
2.08075
2.11285
2.14325
2.17173
2.19802
2.22187
2.24299
2.26108
2.27584
2.28692
2.29399
2.29668
2.29463
2.28749
2.27489
2.2565
2.23203
2.20123
2.16389
2.1199
2.06921
2.0118
1.9477
1.87917
1.80701
1.7309
1.65119
1.56848
1.4835
1.39703
1.30988
1.22288
1.13683
1.05252
0.970663
0.891923
0.816876
0.746006
0.679693
0.618204
0.561695
0.51021
0.463692
0.421991
0.384886
0.352094
0.323294
0.298141
0.276282
0.257361
0.241034
0.226972
0.214859
0.204491
0.195648
0.188114
0.181699
0.176241
0.171597
0.167647
0.164286
0.161426
0.15899
0.156915
0.155146
0.153635
0.152345
0.151242
0.150296
0.149486
0.148789
0.148189
0.147671
0.147222
0.146832
0.146492
0.146193
0.14593
0.145696
0.145487
0.145298
0.145128
0.144972
0.144828
0.144695
0.14457
0.144453
0.144342
0.144236
0.144134
0.144036
0.143941
0.143849
0.143759
0.143671
0.143585
0.143499
0.143415
0.143332
0.143249
0.143166
0.143084
0.143001
0.142919
0.142835
0.14275
0.142664
0.142576
0.142485
0.142391
0.142292
0.142187
0.142075
0.141954
0.141824
0.141682
0.141535
0.141387
0.141304
0.141264
0.142033
0.154927
0.308117
0.381685
0.431194
0.470641
0.505168
0.53685
0.566369
0.593942
0.619753
0.644085
0.667312
0.689857
0.712159
0.734638
0.757673
0.781582
0.806607
0.832906
0.860549
0.88953
0.919771
0.951139
0.983462
1.01654
1.05018
1.08419
1.11839
1.15263
1.18681
1.22085
1.25472
1.28841
1.32196
1.35543
1.3889
1.42246
1.45622
1.4903
1.52478
1.55979
1.59539
1.63167
1.66868
1.70644
1.74496
1.78423
1.82419
1.86477
1.90585
1.9473
1.98904
2.03095
2.07286
2.11458
2.15592
2.1967
2.23669
2.2757
2.3135
2.34988
2.38461
2.41744
2.44811
2.47637
2.50192
2.52446
2.54364
2.55912
2.5705
2.57739
2.57936
2.57599
2.56683
2.55147
2.52949
2.50054
2.46428
2.42046
2.3689
2.30947
2.24262
2.17065
2.09334
2.01092
1.92387
1.83288
1.73872
1.64224
1.54435
1.44594
1.34794
1.25122
1.15665
1.06501
0.977022
0.893315
0.814412
0.740724
0.672535
0.610006
0.553173
0.501955
0.45617
0.415551
0.379765
0.348436
0.321161
0.297533
0.277148
0.259621
0.244586
0.231694
0.220691
0.211319
0.203343
0.196558
0.190787
0.185878
0.181701
0.178145
0.175115
0.172532
0.170326
0.168441
0.166827
0.165444
0.164255
0.163232
0.16235
0.161586
0.160924
0.160347
0.159843
0.159402
0.159012
0.158667
0.15836
0.158085
0.157836
0.157612
0.157406
0.157218
0.157043
0.156881
0.15673
0.156587
0.156452
0.156323
0.1562
0.156082
0.155968
0.155857
0.155749
0.155644
0.155541
0.15544
0.155339
0.15524
0.155142
0.155044
0.154946
0.154847
0.154748
0.154648
0.154546
0.154441
0.154333
0.154221
0.154104
0.15398
0.153847
0.153704
0.153548
0.153376
0.153189
0.152985
0.152786
0.152561
0.152518
0.189872
0.367205
0.452872
0.508969
0.551477
0.586742
0.617837
0.646244
0.672751
0.697906
0.722204
0.746135
0.770171
0.794736
0.820183
0.846775
0.87468
0.903969
0.934625
0.966556
0.999608
1.03359
1.06827
1.10344
1.13886
1.17434
1.20971
1.24483
1.27961
1.31399
1.34796
1.38154
1.41481
1.44785
1.48077
1.51371
1.54682
1.58022
1.61408
1.64851
1.68365
1.71959
1.75641
1.79415
1.83285
1.87248
1.91301
1.95437
1.99644
2.0391
2.08223
2.12572
2.16943
2.21318
2.25676
2.29999
2.34267
2.38458
2.42553
2.46532
2.50374
2.5406
2.57566
2.60872
2.63954
2.66784
2.69334
2.71573
2.73465
2.74971
2.76051
2.76657
2.76742
2.76256
2.75148
2.73367
2.70865
2.67599
2.63529
2.58623
2.52866
2.46416
2.39304
2.31542
2.23164
2.14225
2.04793
1.94945
1.84769
1.74357
1.63805
1.5321
1.42669
1.32276
1.22123
1.12294
1.02866
0.939064
0.854721
0.776075
0.703437
0.636977
0.576729
0.522598
0.474374
0.431751
0.394352
0.361751
0.333498
0.309136
0.288219
0.270323
0.255049
0.242029
0.230974
0.221598
0.21365
0.206916
0.20121
0.196373
0.192271
0.188789
0.185831
0.183314
0.181169
0.179339
0.177773
0.176432
0.17528
0.174287
0.173431
0.172688
0.172042
0.171479
0.170985
0.17055
0.170165
0.169823
0.169516
0.169241
0.168991
0.168764
0.168556
0.168364
0.168186
0.16802
0.167864
0.167718
0.167578
0.167446
0.167319
0.167197
0.167079
0.166965
0.166853
0.166744
0.166637
0.166532
0.166428
0.166326
0.166223
0.166121
0.166019
0.165916
0.165812
0.165706
0.165598
0.165487
0.165373
0.165253
0.165126
0.164992
0.164848
0.164691
0.164521
0.164336
0.164136
0.163931
0.163706
0.163554
0.216775
0.40607
0.500617
0.562329
0.608222
0.645265
0.677162
0.705981
0.732965
0.758957
0.784598
0.810416
0.836842
0.864213
0.892762
0.922623
0.953828
0.986325
1.01999
1.05465
1.09009
1.12608
1.16238
1.19877
1.23505
1.27104
1.30661
1.34166
1.37615
1.41006
1.44342
1.4763
1.5088
1.54105
1.5732
1.6054
1.63782
1.67063
1.704
1.73805
1.77293
1.80872
1.84552
1.88335
1.92222
1.96212
2.00296
2.04466
2.08707
2.13005
2.17346
2.21721
2.26112
2.30501
2.34867
2.3919
2.43452
2.47634
2.51718
2.55689
2.59529
2.63223
2.66756
2.70111
2.73269
2.7621
2.78912
2.81346
2.83481
2.85282
2.86706
2.87708
2.88235
2.88233
2.87643
2.86406
2.84462
2.81755
2.78232
2.73846
2.68686
2.62762
2.56083
2.48667
2.40547
2.31774
2.22409
2.12527
2.02212
1.91554
1.80651
1.69601
1.58507
1.4747
1.36589
1.25961
1.15674
1.05811
0.964453
0.876381
0.794379
0.718785
0.649786
0.587416
0.531566
0.482
0.438376
0.400274
0.367223
0.338727
0.314286
0.293415
0.275657
0.260579
0.247818
0.237039
0.227943
0.220272
0.213804
0.208351
0.20375
0.199865
0.196582
0.193803
0.191448
0.189448
0.187747
0.186295
0.185055
0.183991
0.183076
0.182287
0.181603
0.181009
0.18049
0.180035
0.179634
0.179278
0.178961
0.178677
0.17842
0.178187
0.177975
0.17778
0.177599
0.177432
0.177275
0.177128
0.176988
0.176856
0.17673
0.176608
0.176491
0.176378
0.176268
0.176161
0.176056
0.175952
0.17585
0.175749
0.175649
0.175549
0.175449
0.175348
0.175247
0.175144
0.175038
0.17493
0.174819
0.174702
0.17458
0.17445
0.174312
0.174162
0.174
0.173826
0.173638
0.173444
0.173239
0.173084
0.235821
0.427805
0.527716
0.593729
0.643084
0.682844
0.716914
0.747637
0.776511
0.804547
0.832465
0.860792
0.889907
0.920064
0.951404
0.98397
1.01772
1.05253
1.08823
1.12463
1.16149
1.19858
1.23568
1.27259
1.30912
1.34513
1.38051
1.41521
1.44918
1.48246
1.51511
1.5472
1.57886
1.61025
1.64153
1.67287
1.70446
1.73648
1.76909
1.80244
1.83666
1.87185
1.90808
1.94538
1.98373
2.02309
2.06336
2.10443
2.14612
2.18825
2.2307
2.27334
2.31599
2.35845
2.40053
2.44203
2.48279
2.52264
2.56146
2.59913
2.63555
2.67063
2.70431
2.73648
2.76705
2.79592
2.82291
2.84785
2.87047
2.89047
2.90747
2.92102
2.93058
2.93558
2.93538
2.92928
2.91658
2.89657
2.86873
2.83315
2.78965
2.73813
2.67854
2.61099
2.5357
2.45306
2.3636
2.26797
2.16694
2.06136
1.95217
1.84035
1.72694
1.61298
1.49952
1.3876
1.27823
1.17236
1.07088
0.974569
0.884093
0.799978
0.722595
0.652146
0.588666
0.532031
0.481977
0.438127
0.400017
0.367135
0.33894
0.314895
0.294482
0.277212
0.262645
0.25039
0.240097
0.23146
0.224217
0.218144
0.213051
0.208776
0.205186
0.202166
0.199622
0.197476
0.19566
0.194121
0.192814
0.191699
0.190746
0.189929
0.189225
0.188616
0.188087
0.187626
0.187221
0.186865
0.186548
0.186266
0.186013
0.185784
0.185577
0.185386
0.185211
0.185049
0.184899
0.184757
0.184624
0.184497
0.184377
0.184262
0.184151
0.184044
0.18394
0.183839
0.183739
0.183642
0.183546
0.183451
0.183357
0.183263
0.183168
0.183074
0.182978
0.182881
0.182783
0.182681
0.182577
0.182468
0.182353
0.182232
0.182103
0.181965
0.181816
0.181656
0.181487
0.181313
0.181134
0.181001
0.248229
0.436117
0.538396
0.607326
0.659819
0.7027
0.739756
0.773338
0.805
0.835805
0.866494
0.897575
0.92939
0.96214
0.995917
1.03072
1.06646
1.10301
1.1402
1.1778
1.21561
1.25341
1.29099
1.32817
1.36479
1.40071
1.43587
1.4702
1.5037
1.53641
1.56838
1.59974
1.6306
1.66114
1.69152
1.72194
1.75257
1.78362
1.81524
1.84759
1.8808
1.91496
1.95013
1.98633
2.02351
2.06161
2.10052
2.14007
2.18007
2.2203
2.26065
2.30095
2.34102
2.38065
2.41965
2.45785
2.4951
2.53129
2.56633
2.60018
2.63282
2.66424
2.69446
2.72349
2.75134
2.778
2.80341
2.82749
2.85006
2.87091
2.8897
2.90603
2.91937
2.92914
2.93466
2.93513
2.92977
2.918
2.89931
2.87328
2.83952
2.79772
2.74767
2.68932
2.62273
2.54815
2.46596
2.37668
2.28098
2.17962
2.07346
1.96345
1.85058
1.7359
1.6205
1.50546
1.39186
1.28078
1.17321
1.07012
0.97233
0.880573
0.795414
0.717252
0.646299
0.582586
0.525971
0.476159
0.432735
0.395195
0.362984
0.335524
0.312244
0.2926
0.276084
0.262242
0.250666
0.241001
0.232939
0.226218
0.220616
0.215944
0.212046
0.208789
0.206064
0.203781
0.201863
0.200248
0.198885
0.197732
0.196752
0.195917
0.195203
0.19459
0.19406
0.193602
0.193202
0.192852
0.192543
0.19227
0.192025
0.191806
0.191608
0.191428
0.191263
0.191111
0.19097
0.190838
0.190715
0.190598
0.190487
0.190381
0.190279
0.190181
0.190086
0.189993
0.189903
0.189814
0.189726
0.189639
0.189553
0.189468
0.189382
0.189296
0.189209
0.18912
0.18903
0.188938
0.188843
0.188744
0.18864
0.18853
0.188414
0.18829
0.188157
0.188016
0.187868
0.187719
0.187573
0.18747
0.255237
0.434561
0.536952
0.607522
0.662531
0.708412
0.748658
0.785456
0.820274
0.854132
0.887741
0.921585
0.955977
0.991095
1.02701
1.06371
1.10111
1.13908
1.17745
1.21602
1.25461
1.29299
1.331
1.36845
1.4052
1.44115
1.4762
1.51032
1.54351
1.57581
1.60728
1.63803
1.66821
1.69796
1.72748
1.75695
1.78656
1.8165
1.84695
1.87807
1.90996
1.94272
1.9764
2.01099
2.04644
2.08264
2.11947
2.15671
2.19416
2.23155
2.26878
2.30566
2.34198
2.37756
2.41219
2.44574
2.47809
2.50918
2.53898
2.56752
2.59487
2.6211
2.64633
2.67069
2.69429
2.71723
2.73959
2.76138
2.78255
2.80296
2.82237
2.84047
2.85671
2.87055
2.88134
2.88814
2.89034
2.88723
2.87814
2.86241
2.83945
2.80876
2.76994
2.72274
2.66705
2.60292
2.53058
2.45038
2.36284
2.2686
2.16841
2.06313
1.9537
1.84114
1.72651
1.61092
1.4955
1.3814
1.26973
1.16157
1.05792
0.9597
0.867667
0.782429
0.704404
0.633809
0.570662
0.514795
0.465878
0.423454
0.386981
0.355864
0.329494
0.307275
0.288643
0.273076
0.260108
0.249329
0.240383
0.232968
0.226823
0.221732
0.217512
0.214011
0.211103
0.208684
0.206667
0.204982
0.20357
0.202384
0.201384
0.200538
0.19982
0.199208
0.198684
0.198232
0.197842
0.197503
0.197206
0.196945
0.196713
0.196507
0.196322
0.196154
0.196002
0.195862
0.195733
0.195614
0.195501
0.195396
0.195296
0.195201
0.19511
0.195022
0.194938
0.194855
0.194775
0.194696
0.194618
0.194541
0.194465
0.194388
0.194312
0.194236
0.194159
0.19408
0.194001
0.193919
0.193834
0.193746
0.193655
0.193558
0.193456
0.193348
0.193233
0.193113
0.19299
0.192869
0.192757
0.192688
0.257868
0.42605
0.52702
0.598188
0.654975
0.703386
0.746574
0.786478
0.824402
0.861262
0.897702
0.934167
0.970949
1.00822
1.04604
1.08441
1.12326
1.16247
1.2019
1.24137
1.2807
1.31971
1.35822
1.39607
1.43314
1.46929
1.50447
1.53862
1.57174
1.60385
1.63504
1.66539
1.69503
1.72414
1.75287
1.78143
1.81
1.83878
1.86793
1.89761
1.92793
1.95898
1.99079
2.02333
2.05653
2.09027
2.12436
2.15859
2.19268
2.22641
2.25963
2.29214
2.32375
2.35425
2.38349
2.41134
2.43773
2.46266
2.48617
2.50835
2.52934
2.54933
2.5685
2.58709
2.6053
2.62337
2.64149
2.65979
2.67832
2.69703
2.71581
2.73451
2.75249
2.76925
2.78423
2.79671
2.80594
2.81113
2.81144
2.80607
2.79426
2.77532
2.74866
2.71383
2.67052
2.61858
2.55805
2.48908
2.41202
2.32734
2.23567
2.13774
2.0344
1.92658
1.81533
1.70171
1.58689
1.47205
1.35837
1.24704
1.13922
1.03595
0.938221
0.846824
0.762395
0.685358
0.615921
0.554077
0.499622
0.452186
0.411272
0.376296
0.346631
0.321645
0.300725
0.283285
0.268801
0.256808
0.246901
0.23873
0.231999
0.226455
0.22189
0.21813
0.215028
0.212467
0.210348
0.208592
0.207132
0.205915
0.204898
0.204044
0.203325
0.202717
0.202201
0.20176
0.201382
0.201056
0.200773
0.200526
0.200309
0.200117
0.199946
0.199793
0.199654
0.199528
0.199412
0.199305
0.199205
0.199112
0.199024
0.198941
0.198861
0.198784
0.19871
0.198639
0.198569
0.1985
0.198433
0.198366
0.1983
0.198234
0.198168
0.198102
0.198035
0.197967
0.197898
0.197827
0.197754
0.197678
0.197599
0.197516
0.197429
0.197338
0.197242
0.197143
0.197045
0.196953
0.196875
0.196841
0.256858
0.412784
0.51144
0.582456
0.640322
0.690654
0.736284
0.778899
0.819614
0.859209
0.89824
0.937102
0.976057
1.01527
1.05481
1.09469
1.13486
1.17524
1.21568
1.25605
1.29618
1.33591
1.37506
1.4135
1.45108
1.48768
1.52323
1.55767
1.59099
1.62319
1.65434
1.68451
1.71384
1.74246
1.77054
1.79826
1.82581
1.85338
1.88114
1.90922
1.93775
1.9668
1.99637
2.02644
2.0569
2.08762
2.11836
2.14889
2.1789
2.2082
2.23664
2.26401
2.29012
2.3148
2.33793
2.35942
2.37925
2.39747
2.41418
2.42953
2.44374
2.45705
2.46974
2.48209
2.4944
2.50697
2.52011
2.5341
2.54911
2.56502
2.58192
2.59967
2.61797
2.63639
2.65441
2.67137
2.68648
2.6989
2.70774
2.71206
2.71096
2.7036
2.68921
2.66716
2.63691
2.59813
2.55062
2.49435
2.42945
2.35621
2.27509
2.18667
2.09166
1.99091
1.88536
1.77605
1.66411
1.55074
1.43716
1.32463
1.21442
1.10771
1.00566
0.909247
0.819322
0.736522
0.661262
0.593721
0.533855
0.481415
0.435983
0.397019
0.363906
0.335996
0.312632
0.293176
0.277053
0.263742
0.252788
0.243794
0.236422
0.230385
0.225444
0.221401
0.218089
0.215375
0.213147
0.211314
0.209803
0.208554
0.207519
0.206658
0.205939
0.205336
0.204828
0.204399
0.204034
0.203722
0.203454
0.203222
0.203019
0.202842
0.202686
0.202546
0.202422
0.202309
0.202206
0.202112
0.202024
0.201943
0.201867
0.201795
0.201726
0.20166
0.201597
0.201536
0.201476
0.201418
0.201361
0.201304
0.201248
0.201192
0.201136
0.20108
0.201023
0.200966
0.200907
0.200847
0.200786
0.200722
0.200655
0.200586
0.200514
0.200438
0.200361
0.200283
0.200209
0.200145
0.200099
0.200095
0.252604
0.396345
0.49233
0.562763
0.621167
0.672834
0.720339
0.765154
0.808219
0.850177
0.891488
0.932482
0.97339
1.01436
1.05547
1.09675
1.13817
1.17965
1.22111
1.26241
1.3034
1.34394
1.38388
1.42305
1.46133
1.4986
1.53475
1.56973
1.60349
1.63603
1.66738
1.6976
1.7268
1.7551
1.78265
1.80962
1.83618
1.86251
1.88876
1.91508
1.94157
1.96829
1.99524
2.02238
2.04959
2.0767
2.10347
2.12963
2.15486
2.17907
2.20207
2.2237
2.24381
2.26226
2.27898
2.29392
2.30712
2.31868
2.32874
2.33751
2.34523
2.35218
2.3587
2.3651
2.37166
2.37877
2.38678
2.396
2.40669
2.41901
2.43307
2.44885
2.46623
2.4849
2.50442
2.52422
2.54357
2.56162
2.57746
2.59009
2.59852
2.60178
2.59896
2.58924
2.57192
2.54643
2.51237
2.46948
2.41769
2.35708
2.2879
2.21057
2.12563
2.0338
1.93591
1.83292
1.7259
1.61601
1.50451
1.39269
1.28188
1.1734
1.0685
0.968378
0.87405
0.786366
0.705952
0.633192
0.568221
0.510939
0.461042
0.418064
0.381425
0.350491
0.324559
0.302969
0.285095
0.27037
0.258285
0.248399
0.240329
0.233754
0.228402
0.224048
0.220506
0.217623
0.215273
0.213355
0.211787
0.210502
0.209445
0.208574
0.207853
0.207254
0.206754
0.206335
0.205983
0.205684
0.20543
0.205212
0.205024
0.204861
0.204718
0.204593
0.204481
0.204381
0.20429
0.204208
0.204132
0.204062
0.203997
0.203935
0.203877
0.203821
0.203768
0.203717
0.203667
0.203618
0.20357
0.203523
0.203476
0.203429
0.203383
0.203336
0.203289
0.203241
0.203192
0.203143
0.203092
0.203039
0.202984
0.202928
0.202869
0.202809
0.202749
0.202691
0.202639
0.202599
0.202581
0.202605
0.245243
0.377435
0.471106
0.540919
0.59958
0.652151
0.701041
0.747572
0.792543
0.836483
0.879757
0.92263
0.965289
1.00786
1.05043
1.09302
1.13562
1.17818
1.22064
1.26287
1.30476
1.34617
1.38695
1.42697
1.46607
1.50413
1.54104
1.57671
1.61109
1.64413
1.67586
1.7063
1.73551
1.76361
1.79071
1.81696
1.8425
1.8675
1.89211
1.91644
1.94058
1.9646
1.98848
2.01217
2.03555
2.05844
2.0806
2.10175
2.12161
2.14019
2.15734
2.17293
2.18686
2.19909
2.2096
2.21836
2.22545
2.23102
2.23525
2.23835
2.24057
2.24216
2.24344
2.24471
2.24629
2.24855
2.25184
2.25651
2.26289
2.27127
2.28187
2.2948
2.31008
2.32757
2.34697
2.36781
2.38947
2.41117
2.43202
2.45105
2.46721
2.47945
2.48676
2.48818
2.48282
2.46995
2.44893
2.41932
2.38081
2.33326
2.27672
2.21139
2.13766
2.05606
1.96729
1.87219
1.77175
1.66709
1.55941
1.45003
1.34032
1.23166
1.12543
1.02295
0.925411
0.83386
0.749125
0.67179
0.602185
0.54038
0.486208
0.439306
0.39916
0.365163
0.336601
0.312795
0.293087
0.276866
0.263577
0.252734
0.243914
0.236755
0.230955
0.226261
0.222465
0.219393
0.216908
0.214893
0.213259
0.211929
0.210846
0.20996
0.209234
0.208635
0.208141
0.207731
0.207389
0.207102
0.20686
0.206655
0.20648
0.206329
0.206199
0.206085
0.205985
0.205896
0.205817
0.205745
0.20568
0.20562
0.205564
0.205512
0.205463
0.205416
0.205372
0.205329
0.205287
0.205247
0.205207
0.205168
0.20513
0.205091
0.205053
0.205015
0.204976
0.204937
0.204897
0.204857
0.204815
0.204772
0.204728
0.204683
0.204637
0.20459
0.204545
0.204504
0.204472
0.204454
0.204459
0.204505
0.235849
0.356736
0.448328
0.518024
0.577087
0.630447
0.680459
0.728377
0.774923
0.820543
0.865526
0.910074
0.954329
0.998389
1.04232
1.08615
1.12988
1.17347
1.21687
1.26
1.30274
1.34498
1.38658
1.4274
1.4673
1.50615
1.54382
1.58021
1.61523
1.64883
1.68098
1.71167
1.74094
1.76885
1.79549
1.82096
1.8454
1.86893
1.89167
1.91373
1.93518
1.95608
1.9764
1.99611
2.01509
2.03317
2.05014
2.06574
2.07989
2.09259
2.10378
2.11341
2.12144
2.12789
2.1328
2.13623
2.1383
2.13913
2.13889
2.13777
2.13597
2.13369
2.13117
2.12868
2.1265
2.12494
2.12434
2.12507
2.12749
2.13197
2.13882
2.14831
2.16059
2.17568
2.19345
2.2136
2.23564
2.25892
2.28264
2.30587
2.32759
2.34672
2.36219
2.37292
2.37792
2.37627
2.36718
2.34997
2.32414
2.28934
2.24539
2.19229
2.13022
2.05954
1.98078
1.89465
1.80201
1.7039
1.60147
1.496
1.38887
1.2815
1.17536
1.07185
0.972334
0.878003
0.789877
0.708738
0.635108
0.569236
0.511112
0.460497
0.416983
0.379957
0.348758
0.322702
0.301111
0.283339
0.268792
0.256941
0.247322
0.23954
0.233257
0.228194
0.224119
0.22084
0.218202
0.216077
0.214365
0.212983
0.211866
0.210959
0.210222
0.20962
0.209127
0.208722
0.208388
0.20811
0.207878
0.207683
0.207519
0.207379
0.207259
0.207155
0.207065
0.206986
0.206916
0.206853
0.206796
0.206744
0.206697
0.206652
0.206611
0.206572
0.206535
0.206499
0.206464
0.206431
0.206398
0.206366
0.206334
0.206303
0.206272
0.206241
0.206209
0.206177
0.206145
0.206112
0.206079
0.206045
0.20601
0.205974
0.205939
0.205904
0.205872
0.205846
0.205829
0.205828
0.205852
0.205916
0.223289
0.335735
0.425034
0.494951
0.55469
0.608925
0.659995
0.709147
0.757078
0.804191
0.850727
0.896833
0.942606
0.988109
1.03338
1.07844
1.12328
1.16789
1.21221
1.25617
1.2997
1.34267
1.38498
1.42649
1.46706
1.50655
1.54484
1.5818
1.61733
1.65133
1.68375
1.71456
1.74374
1.77131
1.79733
1.82186
1.84498
1.86679
1.88738
1.90684
1.92523
1.94258
1.9589
1.97417
1.98829
2.00116
2.01262
2.02247
2.0309
2.03791
2.04351
2.04774
2.05065
2.0523
2.05278
2.05219
2.05063
2.04824
2.04512
2.04139
2.03719
2.03263
2.02786
2.02306
2.01842
2.0142
2.0107
2.00825
2.00726
2.00812
2.01125
2.01701
2.02572
2.03755
2.05255
2.0706
2.09138
2.11441
2.13899
2.1643
2.18937
2.21316
2.23457
2.25246
2.26576
2.27343
2.27453
2.26822
2.2538
2.23073
2.19863
2.15729
2.10668
2.04697
1.97852
1.90188
1.81777
1.72709
1.63093
1.53051
1.42717
1.32235
1.21755
1.11426
1.01393
0.917905
0.827363
0.743264
0.666314
0.596941
0.535302
0.481304
0.434623
0.394699
0.360932
0.332653
0.309177
0.289834
0.273999
0.261106
0.250656
0.242218
0.235424
0.229967
0.22559
0.222084
0.219277
0.217028
0.215227
0.213782
0.212622
0.211687
0.210933
0.210322
0.209826
0.209422
0.209091
0.208819
0.208594
0.208406
0.20825
0.208118
0.208006
0.207911
0.207828
0.207757
0.207694
0.207638
0.207588
0.207543
0.207501
0.207463
0.207428
0.207395
0.207363
0.207333
0.207304
0.207276
0.207249
0.207222
0.207196
0.20717
0.207145
0.207119
0.207093
0.207068
0.207041
0.207015
0.206988
0.206961
0.206934
0.206906
0.20688
0.206855
0.206833
0.206818
0.206815
0.206828
0.206866
0.206942
0.206192
0.314047
0.400653
0.471009
0.531838
0.587303
0.639678
0.690223
0.739641
0.788323
0.836481
0.884224
0.931608
0.978654
1.02537
1.07175
1.11779
1.16345
1.20869
1.25346
1.29769
1.34128
1.38414
1.42613
1.46714
1.50702
1.54565
1.58288
1.6186
1.6527
1.68509
1.71569
1.74446
1.77138
1.79645
1.81969
1.84115
1.86089
1.87896
1.89544
1.91037
1.92379
1.93574
1.94622
1.95521
1.96269
1.96861
1.97295
1.97605
1.97798
1.97882
1.97866
1.97761
1.97577
1.97326
1.97016
1.96657
1.96253
1.95811
1.95333
1.94821
1.94278
1.93707
1.93115
1.92513
1.91918
1.91356
1.90858
1.90465
1.90221
1.90174
1.90372
1.90858
1.91667
1.92821
1.94324
1.96164
1.98305
2.00694
2.0326
2.05914
2.08556
2.11079
2.13369
2.15313
2.168
2.17727
2.17997
2.17528
2.16246
2.14097
2.11041
2.07057
2.02141
1.96312
1.89604
1.82077
1.73806
1.64888
1.55435
1.45577
1.35455
1.25218
1.1502
1.05014
0.953443
0.861428
0.775208
0.695661
0.623389
0.55872
0.501721
0.452085
0.409418
0.373175
0.342719
0.317369
0.296447
0.279302
0.265339
0.254027
0.244902
0.237568
0.231689
0.226988
0.223234
0.22024
0.217852
0.215948
0.214429
0.213215
0.212244
0.211465
0.210839
0.210334
0.209926
0.209594
0.209324
0.209102
0.208919
0.208767
0.208641
0.208534
0.208444
0.208367
0.208301
0.208243
0.208192
0.208147
0.208107
0.20807
0.208036
0.208005
0.207976
0.207948
0.207922
0.207897
0.207873
0.20785
0.207828
0.207805
0.207784
0.207762
0.20774
0.207719
0.207698
0.207676
0.207655
0.207633
0.207611
0.207589
0.207568
0.207548
0.207531
0.207517
0.207512
0.207517
0.207541
0.20759
0.207674
0.186663
0.295248
0.378981
0.44938
0.511286
0.568144
0.622027
0.674144
0.725191
0.775551
0.825417
0.874871
0.923932
0.972587
1.02081
1.06857
1.11582
1.16254
1.20868
1.25418
1.29898
1.34301
1.38618
1.42837
1.46948
1.50938
1.54794
1.58501
1.62048
1.65422
1.68612
1.71608
1.74402