/*--------------------------------*- C++ -*----------------------------------*\
| =========                 |                                                 |
| \\      /  F ield         | OpenFOAM: The Open Source CFD Toolbox           |
|  \\    /   O peration     | Version:  2412                                  |
|   \\  /    A nd           | Website:  www.openfoam.com                      |
|    \\/     M anipulation  |                                                 |
\*---------------------------------------------------------------------------*/
FoamFile
{
    version     2.0;
    format      ascii;
    arch        "LSB;label=32;scalar=64";
    class       volScalarField;
    location    "0.02";
    object      nut;
}
// * * * * * * * * * * * * * * * * * * * * * * * * * * * * * * * * * * * * * //

dimensions      [0 2 -1 0 0 0 0];

internalField   nonuniform List<scalar> 
12225
(
2.015e-05
2.24849e-05
2.47483e-05
2.63703e-05
2.75862e-05
2.85118e-05
2.9229e-05
2.97936e-05
3.02426e-05
3.06022e-05
3.08915e-05
3.11247e-05
3.1312e-05
3.14611e-05
3.15776e-05
3.16651e-05
3.17311e-05
3.18064e-05
0.000167805
0.000185447
0.000202618
0.000213812
0.000221178
0.000226024
0.000229049
0.000230774
0.000231575
0.00023171
0.000231363
0.000230668
0.000229726
0.000228606
0.000227367
0.00022604
0.000224781
0.000224202
0.000338363
0.000366032
0.000399398
0.000424449
0.000442832
0.000456203
0.000465724
0.000472333
0.000476749
0.000479506
0.000481003
0.000481542
0.00048135
0.000480601
0.000479431
0.000477953
0.000476409
0.000475847
0.000480655
0.000521813
0.000570175
0.000608458
0.000637886
0.000660309
0.000677214
0.000689821
0.000699093
0.000705773
0.000710432
0.00071351
0.00071535
0.000716218
0.000716328
0.000715869
0.000715141
0.000715004
0.00059359
0.000651022
0.00071357
0.000763888
0.000803411
0.000834274
0.000858263
0.000876826
0.000891112
0.000902019
0.000910248
0.000916352
0.000920765
0.000923833
0.000925839
0.000927035
0.000927741
0.000928595
0.000684446
0.000756735
0.000832067
0.000893203
0.000941808
0.000980317
0.00101081
0.00103493
0.00105401
0.00106904
0.00108086
0.00109008
0.00109724
0.00110273
0.0011069
0.00111005
0.0011125
0.00111474
0.000759801
0.00084295
0.000928452
0.00099885
0.00105546
0.00110082
0.00113719
0.00116642
0.00118994
0.00120888
0.00122414
0.00123642
0.00124631
0.00125426
0.00126068
0.00126589
0.00127022
0.00127403
0.000823687
0.000913509
0.00100545
0.00108286
0.00114608
0.00119737
0.00123897
0.00127281
0.00130042
0.001323
0.00134151
0.00135673
0.00136928
0.00137967
0.00138833
0.00139561
0.00140183
0.00140725
0.00087708
0.000971089
0.00106554
0.00114703
0.00121492
0.00127087
0.00131686
0.00135473
0.00138601
0.00141193
0.00143348
0.00145148
0.00146659
0.00147935
0.00149021
0.00149953
0.0015076
0.00151461
0.000918343
0.00101612
0.00111023
0.00119275
0.00126293
0.00132186
0.00137107
0.00141214
0.00144651
0.00147536
0.00149967
0.00152026
0.00153779
0.00155282
0.00156581
0.00157712
0.00158698
0.0015955
0.000944835
0.00104643
0.00113909
0.00122042
0.00129057
0.00135052
0.00140144
0.00144462
0.00148127
0.00151246
0.00153911
0.00156198
0.00158172
0.00159886
0.00161386
0.00162706
0.00163864
0.0016486
0.000954002
0.00105664
0.00114739
0.00122654
0.0012952
0.00135459
0.0014058
0.00144987
0.00148783
0.00152058
0.00154893
0.00157357
0.0015951
0.001614
0.00163071
0.00164552
0.00165858
0.00166978
0.000951602
0.00105203
0.00114091
0.0012182
0.00128517
0.00134331
0.00139383
0.00143776
0.00147602
0.00150942
0.00153868
0.00156441
0.00158713
0.00160731
0.0016253
0.00164138
0.00165563
0.00166782
0.000937302
0.00102701
0.00110975
0.00118352
0.00124817
0.00130462
0.00135394
0.00139712
0.00143503
0.00146845
0.00149803
0.00152432
0.00154779
0.00156885
0.00158781
0.0016049
0.00162014
0.00163314
0.000914082
0.000982542
0.00105003
0.00111405
0.00117282
0.00122573
0.00127288
0.0013147
0.00135177
0.0013847
0.00141407
0.00144037
0.00146405
0.00148545
0.00150487
0.0015225
0.00153832
0.00155181
0.000888185
0.000929354
0.000972484
0.00101663
0.00106043
0.00110271
0.00114266
0.0011798
0.0012139
0.00124498
0.00127323
0.00129887
0.00132217
0.00134338
0.00136275
0.00138041
0.00139637
0.00141003
0.000866162
0.000882883
0.000901399
0.000921712
0.000943524
0.00096644
0.000990031
0.00101385
0.00103748
0.00106054
0.00108278
0.00110401
0.00112412
0.00114305
0.00116078
0.0011773
0.00119254
0.00120606
0.000853645
0.000856456
0.000860463
0.000865684
0.00087207
0.000879555
0.000888069
0.000897519
0.000907793
0.00091876
0.000930281
0.000942214
0.000954418
0.000966763
0.000979133
0.000991418
0.0010035
0.00101517
0.000856843
0.00086306
0.000870481
0.000879113
0.000888843
0.000899519
0.000910974
0.000923025
0.000935478
0.000948147
0.000960865
0.000973493
0.00098592
0.000998061
0.00100986
0.00102127
0.00103224
0.00104255
0.000879026
0.000910139
0.000943113
0.000977296
0.00101169
0.00104539
0.00107772
0.00110818
0.00113649
0.00116255
0.0011864
0.00120815
0.00122794
0.00124597
0.00126241
0.00127742
0.00129111
0.0013035
0.000912433
0.000978657
0.00104335
0.00110426
0.00115988
0.00120974
0.00125402
0.00129315
0.00132767
0.00135813
0.00138507
0.00140895
0.00143019
0.00144913
0.00146608
0.0014813
0.001495
0.00150742
0.000944624
0.0010393
0.00112405
0.00119805
0.00126201
0.00131725
0.00136503
0.00140639
0.00144223
0.00147337
0.00150046
0.00152411
0.00154479
0.00156294
0.00157892
0.00159301
0.00160548
0.00161657
0.000952892
0.00105478
0.0011447
0.00122259
0.00128942
0.0013466
0.00139537
0.00143689
0.00147224
0.00150237
0.00152811
0.00155015
0.00156907
0.00158535
0.00159941
0.00161157
0.00162209
0.00163121
0.000919652
0.00101556
0.00110682
0.00118624
0.00125335
0.00130956
0.00135643
0.00139547
0.00142804
0.00145528
0.00147812
0.00149731
0.00151346
0.00152709
0.00153861
0.00154835
0.00155658
0.00156348
0.00084781
0.000936011
0.00102565
0.00110165
0.00116412
0.00121519
0.00125688
0.00129097
0.00131892
0.00134189
0.00136079
0.00137637
0.00138921
0.0013998
0.00140852
0.00141568
0.00142154
0.00142623
0.000748158
0.000825197
0.000905652
0.000971801
0.00102502
0.00106775
0.00110207
0.00112966
0.00115187
0.00116975
0.00118414
0.0011957
0.00120495
0.00121231
0.00121813
0.00122268
0.00122617
0.00122873
0.000620799
0.000679322
0.0007437
0.000795778
0.000836935
0.000869382
0.000894909
0.000914945
0.000930628
0.000942853
0.000952318
0.000959575
0.000965059
0.000969116
0.000972021
0.000973994
0.000975206
0.000975771
0.000453215
0.000491074
0.00053648
0.000572172
0.00059929
0.0006199
0.000635479
0.00064714
0.000655764
0.000662031
0.000666461
0.000669454
0.000671321
0.000672305
0.000672595
0.000672341
0.00067166
0.000670648
0.000236572
0.000259235
0.000284027
0.000301418
0.000313135
0.00032121
0.000326719
0.000330336
0.000332563
0.000333766
0.000334208
0.00033408
0.000333529
0.000332664
0.000331568
0.000330304
0.000328923
0.000327486
2.72419e-05
3.01697e-05
3.32396e-05
3.54418e-05
3.70546e-05
3.82615e-05
3.91799e-05
3.9892e-05
4.04519e-05
4.08967e-05
4.12529e-05
4.154e-05
4.17726e-05
4.19617e-05
4.21159e-05
4.22416e-05
4.23438e-05
4.24272e-05
1.20057e-05
3.14017e-05
3.40965e-05
3.55707e-05
3.64998e-05
3.80849e-05
3.98737e-05
4.1591e-05
4.31727e-05
4.46441e-05
4.60727e-05
4.75598e-05
4.93968e-05
5.12835e-05
5.3272e-05
5.53589e-05
5.75417e-05
5.98131e-05
6.21604e-05
6.45669e-05
6.70134e-05
6.94801e-05
7.19482e-05
7.44005e-05
7.68224e-05
7.92017e-05
8.1529e-05
8.3797e-05
8.60007e-05
8.81366e-05
9.02028e-05
9.21982e-05
9.41228e-05
9.5977e-05
9.7762e-05
9.94788e-05
0.000101129
0.000102714
0.000104236
0.000105695
0.000107095
0.000108436
0.00010972
0.00011095
0.000112127
0.000113254
0.000114333
0.000115368
0.000116363
0.000117321
0.000118307
0.00011926
0.000120156
0.000120997
0.000121784
0.000122516
0.000123191
0.000123808
0.000124366
0.00012486
0.00012529
0.000125653
0.000125945
0.000126164
0.000126305
0.000126365
0.000126339
0.000126222
0.00012601
0.000125696
0.000125274
0.000124737
0.000124078
0.00012329
0.000122365
0.000121294
0.000120066
0.000118672
0.000117092
0.000115302
0.000113251
0.000110945
0.000108516
0.000106849
0.000105204
0.000103429
0.000101496
9.94048e-05
9.71595e-05
9.47702e-05
9.22503e-05
8.9617e-05
8.6891e-05
8.40969e-05
8.12632e-05
7.84224e-05
7.56096e-05
7.28621e-05
7.02175e-05
6.77114e-05
6.53755e-05
6.32351e-05
6.13075e-05
5.96011e-05
5.81153e-05
5.68409e-05
5.57624e-05
5.48597e-05
5.41091e-05
5.34854e-05
5.29602e-05
5.25122e-05
5.21247e-05
5.17847e-05
5.1482e-05
5.12089e-05
5.09596e-05
5.07295e-05
5.05154e-05
5.03147e-05
5.01254e-05
4.99461e-05
4.97756e-05
4.96129e-05
4.94573e-05
4.93082e-05
4.9165e-05
4.90274e-05
4.8895e-05
4.87673e-05
4.86442e-05
4.85252e-05
4.84102e-05
4.82987e-05
4.81906e-05
4.80855e-05
4.79832e-05
4.78835e-05
4.7786e-05
4.76907e-05
4.75972e-05
4.75054e-05
4.74152e-05
4.73262e-05
4.72384e-05
4.71516e-05
4.70658e-05
4.69807e-05
4.68992e-05
4.68235e-05
4.67495e-05
4.6677e-05
4.66057e-05
4.65356e-05
4.64665e-05
4.63982e-05
4.63306e-05
4.62635e-05
4.61967e-05
4.61302e-05
4.60638e-05
4.59973e-05
4.59305e-05
4.58632e-05
4.57952e-05
4.57262e-05
4.56557e-05
4.55832e-05
4.55081e-05
4.54297e-05
4.53466e-05
4.52574e-05
4.51599e-05
4.50509e-05
4.49257e-05
4.47767e-05
4.45929e-05
4.43487e-05
4.40285e-05
4.34575e-05
1.68452e-05
9.12754e-05
0.000159912
0.000200669
0.00022299
0.000234216
0.000241182
0.000246085
0.000249569
0.00025201
0.000253775
0.000255195
0.000256555
0.000258028
0.000259736
0.000261766
0.000264194
0.000267087
0.00027051
0.000274524
0.000279189
0.000284557
0.000290675
0.00029758
0.000305302
0.000313865
0.00032328
0.000333555
0.000344688
0.000356674
0.000369504
0.000383164
0.000397642
0.00041292
0.000428982
0.000445809
0.00046338
0.000481669
0.000500645
0.000520269
0.000540493
0.000561254
0.000582472
0.000604046
0.00062585
0.000647729
0.00066949
0.000690904
0.000711702
0.000731595
0.000749759
0.000767584
0.000785416
0.000803259
0.00082108
0.000838843
0.000856508
0.000874035
0.000891381
0.000908502
0.00092535
0.000941877
0.000958027
0.000973744
0.000988963
0.00100361
0.00101761
0.00103088
0.00104331
0.00105481
0.00106523
0.00107447
0.00108237
0.00108876
0.00109348
0.00109633
0.00109706
0.00109541
0.001091
0.00108336
0.00107184
0.00105583
0.0010354
0.00101241
0.000987064
0.000959382
0.000929447
0.000897375
0.000863319
0.000827467
0.000790042
0.000751298
0.000711528
0.000671051
0.000630218
0.000589398
0.000548973
0.000509324
0.000470823
0.000433818
0.000398617
0.000365485
0.000334629
0.000306195
0.000280265
0.000256857
0.000235929
0.000217366
0.00020077
0.000185709
0.000172467
0.000161192
0.000151679
0.000143694
0.000137013
0.000131431
0.000126771
0.000122881
0.00011963
0.00011691
0.000114633
0.000112723
0.000111118
0.000109768
0.000108629
0.000107666
0.000106849
0.000106155
0.000105561
0.00010505
0.000104607
0.00010422
0.000103879
0.000103573
0.000103297
0.000103044
0.000102809
0.000102588
0.000102378
0.000102175
0.000101979
0.000101786
0.000101596
0.000101408
0.00010122
0.000101031
0.000100842
0.000100652
0.00010046
0.000100266
0.00010007
9.98716e-05
9.967e-05
9.94652e-05
9.92569e-05
9.9045e-05
9.88291e-05
9.86089e-05
9.83841e-05
9.81543e-05
9.79189e-05
9.76774e-05
9.74288e-05
9.71721e-05
9.69059e-05
9.66285e-05
9.63373e-05
9.60292e-05
9.56997e-05
9.5343e-05
9.49508e-05
9.45111e-05
9.40066e-05
9.34114e-05
9.26845e-05
9.17651e-05
9.05344e-05
8.89035e-05
8.62988e-05
8.409e-05
2.0538e-05
0.000146265
0.000251262
0.000312341
0.000345822
0.00036461
0.000376051
0.000383779
0.000389499
0.000394123
0.000398271
0.000402435
0.00040702
0.000412358
0.000418725
0.000426352
0.000435435
0.000446132
0.000458571
0.000472839
0.000488988
0.000507031
0.000526944
0.000548667
0.000572113
0.000597166
0.000623696
0.000651561
0.000680615
0.000710716
0.000741729
0.00077353
0.00080601
0.000839072
0.000872631
0.000906615
0.000940956
0.000975591
0.00101046
0.00104549
0.00108062
0.00111576
0.00115081
0.00118568
0.00122025
0.00125439
0.00128797
0.00132086
0.00135295
0.00138414
0.00141437
0.00144436
0.00147423
0.00150396
0.0015335
0.00156277
0.00159171
0.00162025
0.00164833
0.00167586
0.00170277
0.00172898
0.00175441
0.00177894
0.00180249
0.00182492
0.00184611
0.00186589
0.00188411
0.00190056
0.00191504
0.00192732
0.00193713
0.0019442
0.00194824
0.00194892
0.00194591
0.00193885
0.00192735
0.00191102
0.00188947
0.0018624
0.00183012
0.00179335
0.00175233
0.00170717
0.00165806
0.00160521
0.00154894
0.0014896
0.00142762
0.00136348
0.0012977
0.00123087
0.00116357
0.00109642
0.00103003
0.000964986
0.000901834
0.000841055
0.000783055
0.000728153
0.000676582
0.000628488
0.000583941
0.000542943
0.00050544
0.000471328
0.000440413
0.000412455
0.0003872
0.000364176
0.000343624
0.000325529
0.000309699
0.000295925
0.000283995
0.0002737
0.00026484
0.000257231
0.000250706
0.000245116
0.000240327
0.000236224
0.000232707
0.000229689
0.000227095
0.00022486
0.00022293
0.000221257
0.0002198
0.000218525
0.000217403
0.000216407
0.000215517
0.000214716
0.000213987
0.000213318
0.000212698
0.00021212
0.000211574
0.000211056
0.00021056
0.000210082
0.000209618
0.000209165
0.000208722
0.000208285
0.000207853
0.000207424
0.000206998
0.000206571
0.000206145
0.000205716
0.000205285
0.000204851
0.000204411
0.000203966
0.000203514
0.000203053
0.000202581
0.000202098
0.000201599
0.000201082
0.000200542
0.000199975
0.000199374
0.000198728
0.000198027
0.000197254
0.000196385
0.00019539
0.000194222
0.000192812
0.000191051
0.000188773
0.000185659
0.000181278
0.000174288
0.000164342
2.3429e-05
0.00018524
0.000319772
0.000400555
0.000447172
0.000474467
0.00049157
0.00050359
0.000513249
0.000522048
0.000530924
0.000540548
0.000551442
0.000564028
0.000578636
0.000595515
0.000614835
0.000636689
0.000661098
0.000688013
0.000717323
0.000748866
0.000782438
0.000817805
0.000854716
0.000892917
0.000932156
0.000972198
0.00101283
0.00105385
0.00109512
0.00113648
0.00117782
0.00121908
0.00126017
0.00130104
0.00134167
0.00138203
0.00142208
0.0014618
0.00150118
0.00154018
0.00157878
0.00161694
0.00165461
0.00169177
0.00172835
0.0017643
0.00179957
0.00183408
0.00186799
0.00190165
0.00193511
0.00196832
0.00200124
0.00203378
0.00206587
0.00209745
0.00212843
0.00215875
0.00218832
0.00221706
0.00224488
0.00227166
0.0022973
0.00232165
0.00234458
0.00236591
0.00238543
0.00240293
0.00241816
0.00243085
0.00244068
0.00244733
0.00245045
0.00244967
0.00244462
0.0024349
0.00242012
0.00239991
0.00237393
0.00234194
0.00230439
0.00226149
0.00221334
0.00216006
0.00210185
0.00203897
0.00197178
0.00190072
0.0018263
0.0017491
0.00166979
0.00158905
0.00150763
0.00142632
0.00134586
0.00126703
0.00119052
0.00111697
0.00104692
0.000980777
0.000918839
0.000861268
0.000808104
0.000759281
0.00071465
0.000674
0.000637078
0.000603609
0.000573309
0.000545858
0.00052083
0.000498249
0.00047803
0.00046001
0.000444024
0.000429904
0.000417481
0.000406587
0.000397061
0.00038875
0.00038151
0.000375209
0.000369728
0.00036496
0.000360807
0.000357186
0.000354022
0.000351249
0.000348812
0.000346659
0.00034475
0.000343047
0.000341519
0.000340139
0.000338885
0.000337735
0.000336675
0.000335691
0.00033477
0.000333903
0.000333081
0.000332298
0.000331548
0.000330825
0.000330125
0.000329444
0.00032878
0.000328128
0.000327488
0.000326855
0.000326229
0.000325607
0.000324987
0.000324368
0.000323749
0.000323126
0.000322498
0.000321864
0.000321221
0.000320565
0.000319894
0.000319204
0.00031849
0.000317744
0.00031696
0.000316125
0.000315225
0.000314242
0.00031315
0.00031191
0.000310471
0.000308756
0.000306645
0.000303955
0.000300351
0.000295319
0.00028759
0.000276072
2.58851e-05
0.000208186
0.00036954
0.000470701
0.000531914
0.000569645
0.000594496
0.000612841
0.000628356
0.000643156
0.000658519
0.000675277
0.000694007
0.000715113
0.00073886
0.000765395
0.000794753
0.000826873
0.000861611
0.000898754
0.000938037
0.00097916
0.0010218
0.00106563
0.00111033
0.00115559
0.00120115
0.00124675
0.00129218
0.00133727
0.00138187
0.00142589
0.00146925
0.00151192
0.00155386
0.00159508
0.0016356
0.00167545
0.00171466
0.00175327
0.00179132
0.00182885
0.00186588
0.00190243
0.00193852
0.00197414
0.00200927
0.00204389
0.00207795
0.00211138
0.00214438
0.00217717
0.00220978
0.00224218
0.00227429
0.00230607
0.00233744
0.00236834
0.00239871
0.00242848
0.00245758
0.00248594
0.00251348
0.0025401
0.00256572
0.00259019
0.00261339
0.00263514
0.00265525
0.00267349
0.00268961
0.0027033
0.00271425
0.00272209
0.00272644
0.00272689
0.00272301
0.00271437
0.00270053
0.00268106
0.00265556
0.00262405
0.00258669
0.00254346
0.00249439
0.00243954
0.00237906
0.0023132
0.00224231
0.00216679
0.00208719
0.00200408
0.00191817
0.00183019
0.00174096
0.00165135
0.00156225
0.00147454
0.00138909
0.00130671
0.00122812
0.00115391
0.00108454
0.0010203
0.000961311
0.000907547
0.000858836
0.000814896
0.000775372
0.000739863
0.000707961
0.000679261
0.000653356
0.000629826
0.00060859
0.00058946
0.000572269
0.00055687
0.000543122
0.00053089
0.000520043
0.000510452
0.000501993
0.000494546
0.000487998
0.000482246
0.000477193
0.00047275
0.000468839
0.000465389
0.000462337
0.000459629
0.000457215
0.000455055
0.00045311
0.000451351
0.000449749
0.000448281
0.000446929
0.000445674
0.000444504
0.000443405
0.000442368
0.000441384
0.000440445
0.000439546
0.00043868
0.000437843
0.000437031
0.000436239
0.000435466
0.000434707
0.00043396
0.000433222
0.000432491
0.000431766
0.000431043
0.000430321
0.000429597
0.000428869
0.000428134
0.000427389
0.000426631
0.000425856
0.000425057
0.00042423
0.000423364
0.00042245
0.000421473
0.000420415
0.000419251
0.000417944
0.000416446
0.000414686
0.000412556
0.000409891
0.000406416
0.000401689
0.0003948
0.00038495
2.76905e-05
0.000221116
0.000403741
0.00052365
0.000599828
0.000649359
0.000683708
0.000710116
0.000732994
0.00075498
0.000777656
0.000801983
0.000828551
0.000857702
0.000889598
0.000924255
0.000961576
0.00100137
0.00104336
0.00108725
0.00113267
0.00117927
0.00122668
0.00127454
0.00132253
0.00137035
0.00141773
0.00146445
0.00151032
0.00155522
0.00159903
0.00164169
0.00168319
0.00172353
0.00176274
0.00180088
0.00183803
0.00187427
0.00190969
0.00194438
0.00197845
0.00201197
0.00204501
0.00207762
0.00210986
0.00214172
0.00217323
0.00220434
0.00223503
0.00226522
0.00229514
0.00232494
0.00235464
0.00238422
0.00241362
0.00244279
0.00247167
0.00250023
0.0025284
0.00255615
0.00258342
0.00261018
0.00263638
0.00266194
0.0026868
0.00271086
0.00273402
0.00275612
0.00277698
0.0027964
0.00281413
0.00282987
0.00284327
0.00285397
0.00286154
0.00286553
0.00286546
0.00286083
0.00285113
0.00283585
0.00281469
0.00278761
0.00275449
0.00271521
0.00266967
0.00261786
0.00255987
0.00249586
0.00242611
0.00235099
0.00227095
0.00218657
0.0020985
0.00200748
0.00191435
0.00182
0.00172539
0.00163151
0.00153937
0.00144995
0.00136415
0.00128279
0.00120655
0.00113592
0.00107122
0.00101255
0.00095983
0.000912811
0.000871101
0.000834212
0.000801609
0.000772743
0.000747081
0.000724088
0.000703412
0.000684785
0.000667979
0.000652815
0.000639151
0.000626865
0.000615851
0.000606007
0.000597234
0.000589436
0.00058252
0.000576396
0.000570978
0.000566186
0.000561944
0.000558185
0.000554847
0.000551875
0.000549218
0.000546835
0.000544687
0.000542741
0.000540969
0.000539345
0.000537848
0.000536462
0.000535169
0.000533958
0.000532816
0.000531735
0.000530707
0.000529724
0.00052878
0.000527871
0.000526991
0.000526137
0.000525304
0.00052449
0.000523692
0.000522907
0.000522131
0.000521364
0.000520602
0.000519843
0.000519085
0.000518324
0.00051756
0.000516788
0.000516005
0.000515206
0.000514388
0.000513542
0.000512663
0.000511739
0.000510758
0.000509703
0.00050855
0.000507269
0.000505815
0.000504128
0.000502116
0.000499646
0.000496501
0.000492348
0.000486578
0.00047878
2.88953e-05
0.000226228
0.000424372
0.000560582
0.000651138
0.0007129
0.000757642
0.000793073
0.000824076
0.000853662
0.00088365
0.000915113
0.000948653
0.000984564
0.00102293
0.00106368
0.00110663
0.0011515
0.00119798
0.00124571
0.0012943
0.00134337
0.00139256
0.00144153
0.00148995
0.00153755
0.00158409
0.00162938
0.00167327
0.00171565
0.00175648
0.00179572
0.00183341
0.0018696
0.00190437
0.00193784
0.00197012
0.00200135
0.00203167
0.00206123
0.00209015
0.00211855
0.00214653
0.00217418
0.00220154
0.00222865
0.00225552
0.00228213
0.00230844
0.00233439
0.00236021
0.00238602
0.00241183
0.00243761
0.00246333
0.00248894
0.0025144
0.00253968
0.00256477
0.00258964
0.0026143
0.00263872
0.0026629
0.00268682
0.00271045
0.00273374
0.00275662
0.00277899
0.0028007
0.00282158
0.00284138
0.00285983
0.00287658
0.00289124
0.00290336
0.00291245
0.00291797
0.00291934
0.00291597
0.00290735
0.00289322
0.00287331
0.00284733
0.00281503
0.00277622
0.00273077
0.00267867
0.00261999
0.00255489
0.00248366
0.00240667
0.00232441
0.00223748
0.00214657
0.00205249
0.00195611
0.00185844
0.00176052
0.00166344
0.00156833
0.00147628
0.00138831
0.00130533
0.00122809
0.00115715
0.00109284
0.00103525
0.000984259
0.000939544
0.000900612
0.000866857
0.000837613
0.000812203
0.000789967
0.000770307
0.000752803
0.000737104
0.000722948
0.000710146
0.00069856
0.000688083
0.000678632
0.00067013
0.000662506
0.000655689
0.000649608
0.000644195
0.000639381
0.000635102
0.000631296
0.000627907
0.000624883
0.000622177
0.000619747
0.000617555
0.00061557
0.000613761
0.000612106
0.000610581
0.00060917
0.000607856
0.000606626
0.000605468
0.000604374
0.000603334
0.000602342
0.000601391
0.000600476
0.000599593
0.000598737
0.000597904
0.000597092
0.000596296
0.000595516
0.000594746
0.000593987
0.000593234
0.000592485
0.000591739
0.000590992
0.000590243
0.000589488
0.000588724
0.000587947
0.000587152
0.000586334
0.000585486
0.000584599
0.000583661
0.000582657
0.000581566
0.000580364
0.000579011
0.000577457
0.000575629
0.00057342
0.000570668
0.00056713
0.000562412
0.000556358
2.96393e-05
0.000225448
0.000433721
0.000583369
0.000687
0.000760576
0.000815748
0.000860368
0.000899555
0.000936549
0.000973339
0.0010111
0.00105046
0.0010917
0.0011349
0.00117992
0.00122656
0.00127452
0.00132346
0.00137301
0.0014228
0.00147246
0.00152163
0.00156998
0.00161724
0.00166313
0.00170746
0.00175005
0.0017908
0.00182963
0.00186651
0.00190148
0.00193458
0.00196592
0.00199563
0.00202385
0.00205075
0.00207651
0.00210131
0.00212533
0.00214872
0.00217163
0.00219418
0.00221648
0.00223858
0.00226055
0.00228237
0.00230405
0.00232555
0.00234682
0.00236807
0.0023894
0.00241079
0.00243222
0.00245366
0.00247508
0.00249647
0.00251782
0.00253913
0.00256044
0.00258178
0.00260318
0.00262469
0.00264634
0.00266816
0.00269016
0.00271233
0.00273462
0.00275694
0.00277914
0.00280102
0.00282234
0.00284274
0.00286184
0.00287918
0.00289416
0.00290631
0.00291475
0.00291903
0.00291871
0.00291331
0.0029024
0.00288554
0.00286235
0.00283252
0.00279581
0.00275208
0.00270128
0.00264347
0.00257881
0.00250758
0.00243016
0.00234705
0.00225887
0.00216636
0.00207038
0.00197187
0.00187193
0.00177169
0.00167236
0.00157518
0.00148136
0.00139202
0.00130817
0.00123064
0.00116002
0.00109665
0.00104062
0.000991758
0.000949648
0.000913709
0.000883222
0.0008574
0.000835447
0.000816591
0.000800202
0.000785766
0.000772893
0.0007613
0.000750794
0.000741244
0.000732561
0.000724683
0.000717554
0.000711128
0.000705353
0.000700179
0.000695555
0.000691427
0.000687745
0.00068446
0.000681524
0.000678896
0.000676537
0.00067441
0.000672485
0.000670734
0.000669133
0.000667661
0.000666301
0.000665037
0.000663856
0.000662746
0.000661699
0.000660705
0.000659758
0.000658852
0.000657981
0.000657141
0.000656328
0.000655538
0.000654769
0.000654017
0.000653279
0.000652553
0.000651837
0.000651128
0.000650424
0.000649724
0.000649023
0.000648322
0.000647615
0.000646902
0.000646177
0.000645438
0.000644678
0.000643893
0.000643073
0.000642209
0.000641288
0.000640294
0.000639203
0.000637985
0.000636598
0.000634986
0.000633066
0.000630718
0.000627772
0.000623976
0.000619314
3.00326e-05
0.000220427
0.000434039
0.000594121
0.000709083
0.000793468
0.000858468
0.000911843
0.000958768
0.0010026
0.00104544
0.00108855
0.00113261
0.00117795
0.00122463
0.00127254
0.00132148
0.00137115
0.00142123
0.00147137
0.00152121
0.00157039
0.00161859
0.00166551
0.00171087
0.00175444
0.00179603
0.00183551
0.00187277
0.00190779
0.00194055
0.00197111
0.00199956
0.00202603
0.00205067
0.00207368
0.00209525
0.00211559
0.00213492
0.00215343
0.00217132
0.00218876
0.00220588
0.00222281
0.00223962
0.00225637
0.00227306
0.0022897
0.00230624
0.00232268
0.00233919
0.00235579
0.00237247
0.00238921
0.00240598
0.00242276
0.00243956
0.0024564
0.00247334
0.00249043
0.00250777
0.00252544
0.00254356
0.00256221
0.0025815
0.00260151
0.00262229
0.00264387
0.00266621
0.00268922
0.00271277
0.00273664
0.00276046
0.00278388
0.00280654
0.00282746
0.00284624
0.00286228
0.00287499
0.00288378
0.00288803
0.00288717
0.00288064
0.00286792
0.00284858
0.00282225
0.00278866
0.00274763
0.00269909
0.00264308
0.00257975
0.00250936
0.00243231
0.00234911
0.00226042
0.00216701
0.00206981
0.00196985
0.00186829
0.0017664
0.0016655
0.00156693
0.00147203
0.00138201
0.00129797
0.00122078
0.00115107
0.00108917
0.00103514
0.000988728
0.000949454
0.000916626
0.000889419
0.000866935
0.000848263
0.000832575
0.000819178
0.000807516
0.000797175
0.000787867
0.000779405
0.000771674
0.000764602
0.000758148
0.000752276
0.000746957
0.000742159
0.000737847
0.000733981
0.000730523
0.000727433
0.000724669
0.000722196
0.000719977
0.00071798
0.000716177
0.000714541
0.000713049
0.000711681
0.000710421
0.000709252
0.000708163
0.000707142
0.000706181
0.00070527
0.000704404
0.000703577
0.000702782
0.000702018
0.000701278
0.00070056
0.000699862
0.000699179
0.00069851
0.000697853
0.000697205
0.000696564
0.000695928
0.000695295
0.000694664
0.000694031
0.000693395
0.000692753
0.000692101
0.000691437
0.000690757
0.000690053
0.000689321
0.000688552
0.000687735
0.000686855
0.000685896
0.000684832
0.00068363
0.000682247
0.000680621
0.000678668
0.000676268
0.000673266
0.000669712
3.0154e-05
0.00021247
0.000427289
0.00059484
0.000719179
0.000813041
0.000886897
0.000948237
0.00100218
0.0010521
0.00110019
0.00114776
0.00119559
0.00124403
0.0012932
0.00134303
0.00139334
0.00144387
0.00149433
0.00154438
0.00159369
0.00164194
0.00168882
0.00173404
0.00177736
0.00181854
0.00185744
0.00189391
0.00192788
0.00195932
0.00198826
0.00201475
0.00203891
0.00206088
0.00208086
0.00209904
0.00211565
0.00213093
0.00214512
0.00215844
0.00217111
0.00218332
0.00219523
0.00220698
0.00221866
0.00223033
0.00224201
0.00225369
0.00226533
0.00227702
0.00228878
0.00230061
0.00231247
0.00232434
0.00233619
0.00234801
0.00235985
0.00237175
0.00238381
0.00239613
0.00240885
0.00242214
0.00243615
0.00245106
0.00246704
0.00248424
0.00250281
0.00252286
0.00254441
0.0025674
0.00259181
0.00261758
0.00264414
0.0026711
0.0026981
0.00272455
0.00274988
0.00277346
0.00279461
0.00281261
0.00282675
0.00283633
0.00284065
0.00283909
0.00283108
0.00281612
0.0027938
0.00276381
0.00272594
0.0026801
0.0026263
0.00256468
0.00249551
0.00241919
0.00233625
0.00224739
0.00215345
0.00205541
0.00195441
0.00185171
0.00174868
0.00164677
0.00154743
0.0014521
0.00136209
0.00127854
0.00120237
0.0011342
0.00107433
0.00102275
0.000979143
0.000942928
0.000913311
0.000889357
0.000870058
0.000854432
0.000841607
0.00083085
0.000821588
0.000813408
0.000806032
0.000799291
0.00079309
0.000787381
0.000782138
0.000777346
0.000772988
0.000769045
0.000765495
0.000762309
0.000759456
0.000756904
0.000754622
0.000752579
0.000750745
0.000749093
0.000747601
0.000746245
0.000745008
0.000743872
0.000742823
0.000741849
0.000740939
0.000740085
0.000739278
0.000738513
0.000737783
0.000737084
0.000736411
0.000735762
0.000735133
0.000734521
0.000733923
0.000733338
0.000732764
0.000732198
0.000731638
0.000731083
0.000730531
0.00072998
0.000729429
0.000728875
0.000728316
0.000727749
0.000727172
0.000726581
0.000725972
0.000725338
0.000724674
0.00072397
0.000723216
0.000722396
0.000721492
0.00072048
0.000719326
0.000717986
0.000716402
0.000714494
0.000712168
0.000709501
3.00553e-05
0.00020256
0.000415086
0.000587271
0.000718986
0.000820874
0.000902468
0.000970849
0.00103098
0.00108623
0.00113881
0.0011901
0.00124094
0.00129177
0.00134275
0.00139387
0.001445
0.00149592
0.00154636
0.00159604
0.00164465
0.00169188
0.00173745
0.00178109
0.00182256
0.00186165
0.00189822
0.00193212
0.0019633
0.00199172
0.00201742
0.00204046
0.00206096
0.00207909
0.00209502
0.002109
0.00212125
0.00213203
0.0021416
0.00215022
0.00215812
0.00216551
0.00217258
0.00217949
0.00218634
0.00219321
0.00220014
0.00220712
0.00221411
0.00222124
0.00222841
0.00223558
0.00224267
0.00224965
0.00225651
0.00226325
0.00226993
0.00227664
0.0022835
0.00229067
0.00229835
0.00230676
0.00231612
0.00232667
0.00233865
0.00235228
0.0023678
0.00238545
0.00240534
0.00242732
0.00245145
0.00247765
0.00250567
0.00253518
0.00256578
0.00259695
0.00262808
0.0026585
0.00268745
0.00271414
0.00273776
0.00275751
0.00277257
0.00278221
0.00278572
0.00278249
0.00277196
0.00275369
0.00272733
0.00269265
0.00264951
0.00259793
0.00253802
0.00247007
0.00239449
0.00231185
0.0022229
0.00212855
0.00202986
0.00192809
0.00182459
0.00172087
0.00161848
0.00151899
0.00142391
0.00133464
0.00125233
0.0011779
0.00111194
0.00105469
0.00100606
0.000965629
0.000932705
0.000906387
0.000885621
0.000869325
0.000856479
0.000846179
0.000837681
0.000830423
0.000824013
0.000818201
0.000812847
0.000807881
0.000803275
0.000799021
0.000795116
0.000791558
0.000788334
0.00078543
0.000782824
0.000780493
0.00077841
0.00077655
0.000774886
0.000773394
0.000772052
0.00077084
0.00076974
0.000768735
0.000767813
0.000766961
0.000766169
0.000765429
0.000764733
0.000764074
0.000763449
0.000762851
0.000762277
0.000761724
0.000761189
0.00076067
0.000760163
0.000759667
0.00075918
0.000758701
0.000758228
0.000757758
0.000757292
0.000756826
0.00075636
0.000755892
0.00075542
0.000754942
0.000754456
0.000753958
0.000753445
0.000752913
0.000752355
0.000751767
0.000751138
0.000750457
0.000749712
0.000748882
0.000747946
0.000746873
0.000745623
0.000744146
0.000742388
0.000740431
2.97626e-05
0.000191383
0.000398649
0.000572812
0.000709959
0.000818456
0.000906695
0.000981228
0.00104679
0.00110668
0.00116312
0.00121755
0.00127087
0.00132358
0.00137594
0.00142797
0.00147962
0.00153069
0.00158099
0.00163024
0.00167818
0.00172453
0.00176901