/*--------------------------------*- C++ -*----------------------------------*\
| =========                 |                                                 |
| \\      /  F ield         | OpenFOAM: The Open Source CFD Toolbox           |
|  \\    /   O peration     | Version:  2412                                  |
|   \\  /    A nd           | Website:  www.openfoam.com                      |
|    \\/     M anipulation  |                                                 |
\*---------------------------------------------------------------------------*/
FoamFile
{
    version     2.0;
    format      ascii;
    arch        "LSB;label=32;scalar=64";
    class       volScalarField;
    location    "0.02";
    object      p;
}
// * * * * * * * * * * * * * * * * * * * * * * * * * * * * * * * * * * * * * //

dimensions      [0 2 -2 0 0 0 0];

internalField   nonuniform List<scalar> 
12225
(
-10.2941
-9.70229
-9.03949
-8.48239
-7.97213
-7.51398
-7.11313
-6.7592
-6.44323
-6.15957
-5.90325
-5.66967
-5.45485
-5.25534
-5.06804
-4.88979
-4.71973
-4.55028
-10.7294
-9.76041
-9.07432
-8.52339
-8.01245
-7.55425
-7.15276
-6.7974
-6.47978
-6.1944
-5.9363
-5.70092
-5.48431
-5.28301
-5.09387
-4.9137
-4.7402
-4.56916
-10.9089
-9.79452
-9.11601
-8.57421
-8.06281
-7.60549
-7.20414
-6.84773
-6.52855
-6.24136
-5.98128
-5.74383
-5.52511
-5.32167
-5.13035
-4.94785
-4.77081
-4.59085
-10.9325
-9.81026
-9.14067
-8.60816
-8.09948
-7.64505
-7.24559
-6.88976
-6.57043
-6.28266
-6.02166
-5.78309
-5.56315
-5.35847
-5.16587
-4.98218
-4.80301
-4.62414
-10.8625
-9.80505
-9.14098
-8.619
-8.11741
-7.66794
-7.27208
-6.91849
-6.60052
-6.31348
-6.05279
-5.81426
-5.59423
-5.38947
-5.19688
-5.01366
-4.83516
-4.66369
-10.7207
-9.77198
-9.11757
-8.60827
-8.11837
-7.67615
-7.28552
-6.93571
-6.6204
-6.33524
-6.07592
-5.83844
-5.61934
-5.41559
-5.22429
-5.04316
-4.86788
-4.7064
-10.5181
-9.70565
-9.07145
-8.57678
-8.10306
-7.67091
-7.28727
-6.94278
-6.63143
-6.34927
-6.09232
-5.85686
-5.63968
-5.438
-5.24924
-5.07169
-4.90165
-4.75135
-10.2653
-9.60347
-9.00346
-8.5251
-8.07142
-7.6526
-7.27794
-6.9404
-6.63439
-6.3564
-6.10287
-5.87045
-5.65619
-5.45766
-5.27266
-5.10007
-4.9368
-4.79832
-9.97295
-9.46513
-8.91474
-8.4549
-8.02398
-7.62184
-7.25833
-6.92938
-6.63014
-6.35753
-6.10852
-5.88016
-5.66988
-5.47559
-5.29553
-5.12909
-4.97378
-4.84723
-9.65239
-9.29265
-8.80666
-8.36903
-7.96247
-7.57997
-7.22978
-6.91097
-6.61987
-6.35386
-6.11047
-5.88722
-5.68195
-5.49296
-5.3189
-5.15963
-5.01304
-4.89817
-9.31575
-9.09079
-8.68087
-8.27104
-7.88981
-7.52923
-7.19441
-6.8871
-6.60533
-6.34704
-6.11028
-5.89311
-5.69381
-5.51107
-5.34393
-5.19259
-5.05508
-4.95154
-9.00406
-8.88538
-8.55159
-8.17348
-7.8164
-7.47744
-7.15842
-6.86277
-6.5904
-6.34
-6.11011
-5.89928
-5.70618
-5.52988
-5.36968
-5.22607
-5.09682
-5.00347
-8.70941
-8.67141
-8.41355
-8.07192
-7.73929
-7.42263
-7.12076
-6.83763
-6.57524
-6.3333
-6.11084
-5.90686
-5.72045
-5.551
-5.39807
-5.26224
-5.14166
-5.05595
-8.40284
-8.42751
-8.24858
-7.95324
-7.64964
-7.35893
-7.0783
-6.81087
-6.56068
-6.329
-6.11558
-5.91991
-5.74153
-5.58016
-5.43562
-5.30853
-5.19734
-5.11857
-8.10638
-8.1739
-8.06674
-7.82349
-7.55268
-7.29002
-7.03399
-6.78575
-6.55042
-6.33109
-6.12849
-5.94265
-5.77355
-5.62127
-5.48586
-5.36793
-5.26603
-5.19356
-7.84865
-7.94249
-7.89308
-7.7011
-7.464
-7.22826
-6.99672
-6.76895
-6.54996
-6.34429
-6.15379
-5.97894
-5.82005
-5.67744
-5.5513
-5.44221
-5.34873
-5.28106
-7.66154
-7.7701
-7.76222
-7.61452
-7.40916
-7.19732
-6.98701
-6.77759
-6.57342
-6.37993
-6.20006
-6.03479
-5.88457
-5.74983
-5.63077
-5.52784
-5.43965
-5.37244
-7.58498
-7.69769
-7.71096
-7.59046
-7.40701
-7.21208
-7.01682
-6.82087
-6.62795
-6.44367
-6.27152
-6.11277
-5.96788
-5.8371
-5.72051
-5.61801
-5.52886
-5.45447
-7.68365
-7.79084
-7.79765
-7.67187
-7.48496
-7.28804
-7.09181
-6.89569
-6.70319
-6.51964
-6.34819
-6.18978
-6.04448
-5.91219
-5.79264
-5.68515
-5.58947
-5.50234
-7.95893
-8.05332
-8.02002
-7.84891
-7.62819
-7.40679
-7.19024
-6.97732
-6.77204
-6.57901
-6.40014
-6.23555
-6.0848
-5.94737
-5.82258
-5.70939
-5.60751
-5.51133
-8.35182
-8.40978
-8.30736
-8.07317
-7.80945
-7.55553
-7.31092
-7.07513
-6.85257
-6.64638
-6.457
-6.28377
-6.1258
-5.98215
-5.85183
-5.73356
-5.62685
-5.5257
-8.85201
-8.83153
-8.62319
-8.31355
-8.00201
-7.70892
-7.43056
-7.16881
-6.92718
-6.70642
-6.50551
-6.32306
-6.15767
-6.0079
-5.87239
-5.74965
-5.63883
-5.53421
-9.41598
-9.26016
-8.91614
-8.53344
-8.17733
-7.84471
-7.53401
-7.24906
-6.99056
-6.75672
-6.54548
-6.35486
-6.18293
-6.02781
-5.8878
-5.76127
-5.64707
-5.5401
-9.98036
-9.63418
-9.15105
-8.71351
-8.32018
-7.95163
-7.61354
-7.30957
-7.03682
-6.79176
-6.57172
-6.37422
-6.19681
-6.03725
-5.89357
-5.76398
-5.64712
-5.53853
-10.4843
-9.91576
-9.3202
-8.84877
-8.42288
-8.02345
-7.66406
-7.34534
-7.06129
-6.80745
-6.58072
-6.37807
-6.19662
-6.03385
-5.88758
-5.75585
-5.63719
-5.52777
-10.8858
-10.0934
-9.42716
-8.9355
-8.48115
-8.05837
-7.68416
-7.35494
-7.0628
-6.80288
-6.57162
-6.36556
-6.18151
-6.01674
-5.86892
-5.73599
-5.61634
-5.50676
-11.1571
-10.1769
-9.47755
-8.97142
-8.49588
-8.05832
-7.67468
-7.33858
-7.04135
-6.7778
-6.54398
-6.33613
-6.15086
-5.98526
-5.83691
-5.70366
-5.58385
-5.4748
-11.2645
-10.1922
-9.4783
-8.95589
-8.46838
-8.02333
-7.63419
-7.29438
-6.9949
-6.73008
-6.49568
-6.28773
-6.10269
-5.93756
-5.78981
-5.65726
-5.53818
-5.43043
-11.1332
-10.1626
-9.44336
-8.8984
-8.40603
-7.95872
-7.5673
-7.22673
-6.92768
-6.66385
-6.43078
-6.22438
-6.04101
-5.87759
-5.73154
-5.60066
-5.48313
-5.37714
-10.6
-10.0704
-9.40076
-8.84142
-8.34737
-7.89987
-7.50806
-7.16818
-6.87054
-6.60834
-6.37697
-6.17232
-5.99068
-5.82893
-5.68449
-5.55514
-5.43898
-5.33415
-5.52409
-5.53158
-5.55302
-5.5829
-5.61538
-5.65051
-5.69019
-5.73466
-5.784
-5.83864
-5.89913
-5.96612
-6.04041
-6.12291
-6.21454
-6.31626
-6.42906
-6.55397
-6.69197
-6.84397
-7.01072
-7.19276
-7.39037
-7.60346
-7.8316
-8.07397
-8.32936
-8.59618
-8.87251
-9.15616
-9.44466
-9.73536
-10.0255
-10.3121
-10.5922
-10.8627
-11.1207
-11.3628
-11.5862
-11.7876
-11.9641
-12.1127
-12.2306
-12.315
-12.3634
-12.3737
-12.3444
-12.2744
-12.1614
-12.0012
-11.792
-11.5287
-11.213
-10.8462
-10.429
-9.96255
-9.44792
-8.88667
-8.28068
-7.63216
-6.94373
-6.21831
-5.45919
-4.67
-3.85465
-3.01736
-2.16266
-1.29529
-0.42026
0.457235
1.33183
2.19804
3.05033
3.88314
4.69099
5.46857
6.21078
6.91284
7.57044
8.17982
8.73823
9.24517
9.70052
10.1017
10.4469
10.7366
10.9721
11.156
11.291
11.3806
11.4289
11.44
11.4182
11.3682
11.2943
11.2007
11.0917
10.9709
10.8417
10.7072
10.57
10.4322
10.2957
10.162
10.0321
9.90708
9.78748
9.67419
9.56741
9.46511
9.36737
9.27497
9.18823
9.10711
9.03146
8.96106
8.89563
8.8349
8.77856
8.72633
8.67794
8.6331
8.59156
8.5531
8.51747
8.48447
8.4539
8.42557
8.39931
8.37495
8.35234
8.33133
8.3118
8.29362
8.27667
8.26085
8.24606
8.23222
8.21923
8.20703
8.19553
8.18469
8.17444
8.16472
8.1555
8.14672
8.13835
8.13036
8.12271
8.11536
8.10826
8.10139
8.09475
8.08832
8.08209
8.07604
8.07019
8.06452
8.05905
8.05379
8.04876
8.04399
8.03954
8.03546
8.03184
8.02879
8.02644
8.02501
8.02474
8.02599
8.02924
8.03512
8.04457
8.0589
8.08007
8.11092
8.15641
8.22245
8.32625
8.45546
-5.50634
-5.52529
-5.54687
-5.56966
-5.59338
-5.61949
-5.64951
-5.68469
-5.72546
-5.77214
-5.82524
-5.88541
-5.9533
-6.02986
-6.1163
-6.21388
-6.32389
-6.44759
-6.58617
-6.74066
-6.91186
-7.10024
-7.30592
-7.52856
-7.76742
-8.02132
-8.2887
-8.56764
-8.85596
-9.15123
-9.45087
-9.75218
-10.0524
-10.3486
-10.6379
-10.9174
-11.1842
-11.4353
-11.6676
-11.8782
-12.0642
-12.2224
-12.3499
-12.4438
-12.5013
-12.5194
-12.4954
-12.4266
-12.311
-12.1485
-11.9374
-11.6816
-11.3782
-11.0258
-10.6243
-10.1741
-9.67617
-9.13185
-8.5429
-7.91146
-7.24001
-6.53139
-5.78878
-5.01568
-4.21587
-3.39344
-2.55273
-1.69836
-0.835126
0.0319429
0.897676
1.75678
2.60392
3.43373
4.24094
5.02041
5.76727
6.47697
7.14537
7.76881
8.34389
8.86706
9.33561
9.74928
10.1087
10.4143
10.6674
10.8701
11.025
11.1351
11.2041
11.2358
11.2344
11.204
11.1488
11.0729
10.9802
10.8744
10.7588
10.6364
10.5098
10.3814
10.253
10.1261
10.0021
9.88183
9.766
9.65471
9.54799
9.44713
9.35208
9.26268
9.17858
9.09967
9.02582
8.95685
8.89254
8.83268
8.77702
8.72531
8.67731
8.63278
8.59148
8.55318
8.51768
8.48478
8.45427
8.42597
8.39973
8.37537
8.35275
8.33173
8.31217
8.29396
8.27699
8.26114
8.24632
8.23245
8.21943
8.2072
8.19568
8.18482
8.17454
8.1648
8.15556
8.14676
8.13837
8.13035
8.12268
8.1153
8.10818
8.1013
8.09465
8.0882
8.08196
8.0759
8.07003
8.06435
8.05886
8.05358
8.04853
8.04374
8.03926
8.03514
8.03146
8.02834
8.02591
8.02437
8.02395
8.025
8.02796
8.03345
8.04231
8.05574
8.07548
8.10393
8.14527
8.20344
8.29185
8.39665
-5.40903
-5.44554
-5.4786
-5.50513
-5.52818
-5.552
-5.57931
-5.61164
-5.65
-5.69538
-5.74883
-5.81152
-5.88462
-5.96932
-6.06682
-6.17824
-6.30456
-6.44657
-6.60481
-6.77951
-6.9706
-7.17772
-7.4002
-7.63709
-7.8872
-8.14914
-8.42133
-8.70206
-8.98946
-9.28156
-9.57629
-9.87148
-10.1649
-10.4541
-10.7366
-11.01
-11.2716
-11.5186
-11.7483
-11.9577
-12.1441
-12.3045
-12.436
-12.5358
-12.6011
-12.6292
-12.6174
-12.5629
-12.4633
-12.3176
-12.1243
-11.8834
-11.5942
-11.2561
-10.8691
-10.4337
-9.95077
-9.42154
-8.84772
-8.23139
-7.57497
-6.88122
-6.15325
-5.39444
-4.60848
-3.79935
-2.97127
-2.12868
-1.27626
-0.418872
0.438466
1.29063
2.13241
2.95862
3.76411
4.54387
5.29311
6.00736
6.68253
7.31491
7.90106
8.43786
8.92323
9.35625
9.73649
10.0641
10.3401
10.5662
10.7445
10.8781
10.9702
11.0243
11.0444
11.0344
10.9983
10.94
10.8635
10.7722
10.6697
10.5588
10.4424
10.3228
10.2021
10.0818
9.96343
9.84799
9.73626
9.62877
9.52599
9.42845
9.33604
9.2486
9.16619
9.0888
9.01629
8.94849
8.88523
8.82629
8.77145
8.72046
8.6731
8.62912
8.58831
8.55045
8.51532
8.48274
8.45251
8.42446
8.39843
8.37425
8.35179
8.3309
8.31147
8.29336
8.27647
8.26069
8.24594
8.23212
8.21915
8.20696
8.19547
8.18463
8.17438
8.16466
8.15543
8.14664
8.13826
8.13024
8.12256
8.11518
8.10806
8.10118
8.09453
8.08808
8.08183
8.07577
8.06989
8.06419
8.05869
8.05339
8.04832
8.0435
8.03898
8.03481
8.03108
8.02788
8.02535
8.02367
8.02308
8.02389
8.02652
8.03153
8.03971
8.0521
8.0702
8.09593
8.13241
8.1818
8.25094
8.32089
-5.26516
-5.31841
-5.37292
-5.41305
-5.44415
-5.47418
-5.50743
-5.54618
-5.5921
-5.6466
-5.71098
-5.78647
-5.87417
-5.97503
-6.08986
-6.21924
-6.36354
-6.52291
-6.69729
-6.88643
-7.08989
-7.30708
-7.53727
-7.7796
-8.03311
-8.29668
-8.56912
-8.8491
-9.13514
-9.42567
-9.71893
-10.013
-10.306
-10.5956
-10.8795
-11.1553
-11.4202
-11.6717
-11.9068
-12.1226
-12.3161
-12.4842
-12.6239
-12.7321
-12.806
-12.8427
-12.8396
-12.7943
-12.7047
-12.5691
-12.3863
-12.1554
-11.8756
-11.5465
-11.1681
-10.741
-10.266
-9.74441
-9.17789
-8.56852
-7.91871
-7.23119
-6.50903
-5.75557
-4.97444
-4.16955
-3.34503
-2.50527
-1.65485
-0.798571
0.0586315
0.911682
1.75543
2.58469
3.39431
4.17926
4.9347
5.65605
6.33905
6.97983
7.57516
8.12262
8.62034
9.06674
9.46106
9.80332
10.0944
10.3357
10.5295
10.6785
10.7857
10.8546
10.889
10.8927
10.8696
10.8235
10.7584
10.6776
10.5846
10.4824
10.3739
10.2613
10.1469
10.0323
9.91897
9.80809
9.70049
9.59678
9.4974
9.40271
9.31285
9.22786
9.14785
9.07262
9.00207
8.93605
8.87437
8.81683
8.76322
8.71331
8.66689
8.62374
8.58365
8.54641
8.51183
8.47972
8.4499
8.42221
8.39649
8.37259
8.35036
8.32967
8.31041
8.29245
8.27569
8.26002
8.24536
8.23163
8.21873
8.20659
8.19516
8.18436
8.17415
8.16446
8.15526
8.14649
8.13812
8.13012
8.12244
8.11506
8.10795
8.10107
8.09442
8.08797
8.08171
8.07564
8.06975
8.06404
8.05852
8.05319
8.04809
8.04322
8.03865
8.03441
8.03059
8.02727
8.02459
8.02272
8.02186
8.02232
8.02447
8.02882
8.03604
8.04702
8.06297
8.0853
8.11601
8.15569
8.20609
8.2484
-5.13732
-5.20637
-5.28063
-5.33615
-5.37882
-5.41898
-5.46222
-5.51154
-5.569
-5.63616
-5.71429
-5.80441
-5.90732
-6.02366
-6.15381
-6.29801
-6.4563
-6.62855
-6.81452
-7.01385
-7.2261
-7.45072
-7.6871
-7.93452
-8.1922
-8.45923
-8.73461
-9.0172
-9.30573
-9.59879
-9.89482
-10.1921
-10.4886
-10.7824
-11.0712
-11.3525
-11.6237
-11.8821
-12.1247
-12.3486
-12.5507
-12.7277
-12.8765
-12.9939
-13.077
-13.1228
-13.1285
-13.0916
-13.01
-12.882
-12.706
-12.4811
-12.2066
-11.882
-11.5075
-11.0836
-10.6113
-10.0919
-9.5271
-8.91905
-8.27015
-7.58316
-6.86113
-6.10738
-5.32552
-4.51941
-3.69313
-2.85102
-1.99762
-1.13766
-0.276072
0.582097
1.43169
2.26749
3.08431
3.87705
4.64077
5.37077
6.06264
6.71248
7.31718
7.8743
8.38178
8.83813
9.24261
9.59527
9.8969
10.149
10.3536
10.5134
10.6314
10.711
10.7559
10.7698
10.7565
10.7199
10.6636
10.5911
10.5058
10.4107
10.3085
10.2018
10.0926
9.98274
9.87371
9.7667
9.66265
9.56221
9.46587
9.374
9.2868
9.20432
9.12657
9.05345
8.98485
8.92063
8.86058
8.80453
8.75226
8.70356
8.65823
8.61606
8.57684
8.54038
8.5065
8.47501
8.44574
8.41854
8.39325
8.36973
8.34784
8.32745
8.30845
8.29073
8.27417
8.25869
8.24419
8.23059
8.21782
8.2058
8.19446
8.18374
8.1736
8.16398
8.15483
8.14611
8.13778
8.12981
8.12216
8.1148
8.1077
8.10083
8.09419
8.08775
8.08149
8.07542
8.06952
8.0638
8.05826
8.0529
8.04775
8.04284
8.03819
8.03387
8.02993
8.02647
8.02359
8.02147
8.02028
8.02029
8.02184
8.02536
8.03141
8.0407
8.05413
8.07261
8.09719
8.12718
8.1614
8.18326
-5.06575
-5.14299
-5.22976
-5.29792
-5.35201
-5.40294
-5.45695
-5.51739
-5.58647
-5.66578
-5.75648
-5.8594
-5.97513
-6.10406
-6.24637
-6.40211
-6.57121
-6.75346
-6.94861
-7.15629
-7.37611
-7.6076
-7.85023
-8.10341
-8.36647
-8.63863
-8.91903
-9.20666
-9.50037
-9.79888
-10.1007
-10.4042
-10.7076
-11.0087
-11.3054
-11.5952
-11.8754
-12.1433
-12.3958
-12.6298
-12.8421
-13.0293
-13.1883
-13.3156
-13.4081
-13.4627
-13.4767
-13.4472
-13.3723
-13.2499
-13.0787
-12.8575
-12.5856
-12.2627
-11.8891
-11.4653
-10.9924
-10.4719
-9.90546
-9.29533
-8.64397
-7.95416
-7.22898
-6.47174
-5.68604
-4.87569
-4.04474
-3.1975
-2.33844
-1.4723
-0.603968
0.261502
1.11892
1.96305
2.78862
3.59044
4.36346
5.10283
5.80409
6.46342
7.07763
7.64408
8.1607
8.62608
9.03953
9.40115
9.71176
9.97286
10.1865
10.3554
10.4826
10.5713
10.6252
10.648
10.6435
10.6153
10.5671
10.5024
10.4243
10.336
10.2401
10.139
10.035
9.9298
9.82501
9.72187
9.62134
9.52416
9.43087
9.34185
9.25731
9.17733
9.10192
9.03101
8.96447
8.90216
8.8439
8.78949
8.73872
8.69141
8.64733
8.6063
8.56811
8.53258
8.49954
8.4688
8.44022
8.41363
8.38888
8.36584
8.34439
8.32439
8.30573
8.28831
8.27203
8.25679
8.24251
8.2291
8.21649
8.20462
8.19341
8.18282
8.17278
8.16325
8.15418
8.14553
8.13726
8.12933
8.12173
8.1144
8.10733
8.10049
8.09387
8.08744
8.08119
8.07512
8.06922
8.06348
8.05791
8.05253
8.04733
8.04235
8.03763
8.03319
8.02912
8.02547
8.02237
8.01994
8.01835
8.01783
8.01867
8.02121
8.02591
8.0333
8.04396
8.05838
8.0768
8.09774
8.11843
8.12478
-5.06079
-5.13858
-5.22928
-5.30461
-5.36701
-5.42662
-5.48957
-5.5592
-5.63771
-5.72664
-5.82705
-5.93965
-6.06492
-6.20311
-6.35434
-6.51861
-6.69582
-6.88577
-7.08824
-7.30292
-7.52949
-7.76754
-8.01665
-8.27629
-8.54589
-8.82475
-9.11209
-9.40698
-9.70835
-10.0149
-10.3254
-10.638
-10.9509
-11.2622
-11.5695
-11.8703
-12.162
-12.4416
-12.706
-12.9519
-13.1761
-13.375
-13.5451
-13.683
-13.7854
-13.8491
-13.8711
-13.8487
-13.7796
-13.6619
-13.4941
-13.2751
-13.0042
-12.6813
-12.3066
-11.8809
-11.4054
-10.8816
-10.3114
-9.69701
-9.04105
-8.34633
-7.61593
-6.8532
-6.06169
-5.2452
-4.40775
-3.55357
-2.68714
-1.81315
-0.936469
-0.0621725
0.804517
1.6583
2.49381
3.30572
4.08883
4.83822
5.54949
6.21871
6.84258
7.41835
7.94392
8.41792
8.83973
9.20952
9.52817
9.79725
10.0189
10.1958
10.331
10.4279
10.49
10.5209
10.5245
10.5044
10.4641
10.4069
10.3361
10.2546
10.1652
10.0701
9.97154
9.87139
9.77119
9.67222
9.57551
9.48185
9.39183
9.30584
9.22413
9.14681
9.07391
9.00535
8.94103
8.8808
8.82448
8.77186
8.72277
8.67698
8.63432
8.59457
8.55756
8.52311
8.49104
8.46118
8.43339
8.40752
8.38342
8.36096
8.34003
8.3205
8.30226
8.28522
8.26927
8.25434
8.24032
8.22715
8.21476
8.20308
8.19204
8.1816
8.17169
8.16228
8.15331
8.14475
8.13656
8.12871
8.12116
8.11388
8.10685
8.10005
8.09345
8.08704
8.08081
8.07474
8.06884
8.06309
8.0575
8.05207
8.04683
8.04178
8.03696
8.0324
8.02816
8.02431
8.02094
8.01816
8.01612
8.015
8.01503
8.01649
8.01971
8.02504
8.03281
8.04312
8.05563
8.06837
8.07784
8.07224
-5.11213
-5.18435
-5.27158
-5.34831
-5.41492
-5.4799
-5.54877
-5.62466
-5.70961
-5.80508
-5.91206
-6.0312
-6.16293
-6.30749
-6.46499
-6.63544
-6.81876
-7.01482
-7.22343
-7.44435
-7.67731
-7.92198
-8.17797
-8.44483
-8.72204
-9.00894
-9.30478
-9.60868
-9.91959
-10.2363
-10.5573
-10.8812
-11.2059
-11.5294
-11.8494
-12.1633
-12.4684
-12.7616
-13.0396
-13.2991
-13.5366
-13.7483
-13.9307
-14.0802
-14.1931
-14.2663
-14.2966
-14.2812
-14.2177
-14.1042
-13.9391
-13.7215
-13.4507
-13.1266
-12.7497
-12.3209
-11.8415
-11.313
-10.7377
-10.1178
-9.45594
-8.75504
-8.01819
-7.24875
-6.45025
-5.62646
-4.78135
-3.9191
-3.04416
-2.16117
-1.275
-0.390735
0.486332
1.3508
2.19718
3.01997
3.81394
4.57412
5.296
5.97555
6.60926
7.19432
7.72863
8.21086
8.64047
9.01771
9.34357
9.6197
9.84836
10.0323
10.1746
10.2787
10.3482
10.3866
10.3978
10.3853
10.3526
10.3029
10.2395
10.1651
10.0823
9.99359
9.90099
9.80634
9.7112
9.61688
9.52444
9.4347
9.34829
9.26564
9.18705
9.11265
9.04247
8.97648
8.91457
8.8566
8.80239
8.75175
8.70448
8.66039
8.61929
8.58098
8.54529
8.51204
8.48106
8.45221
8.42533
8.40028
8.37692
8.35514
8.33481
8.31583
8.29809
8.28149
8.26594
8.25136
8.23766
8.22478
8.21264
8.20119
8.19036
8.18009
8.17035
8.16108
8.15224
8.14379
8.1357
8.12793
8.12045
8.11324
8.10626
8.0995
8.09294
8.08656
8.08035
8.07429
8.06838
8.06262
8.05701
8.05154
8.04624
8.04112
8.03619
8.0315
8.02708
8.02301
8.01934
8.01617
8.01362
8.01184
8.011
8.0113
8.01296
8.01616
8.02101
8.02729
8.03428
8.03974
8.03993
8.02509
-5.19861
-5.26144
-5.34015
-5.41361
-5.48065
-5.54778
-5.61964
-5.69899
-5.78766
-5.88699
-5.99792
-6.12109
-6.25693
-6.4057
-6.56755
-6.74252
-6.93059
-7.13168
-7.34564
-7.57231
-7.81144
-8.06275
-8.32591
-8.6005
-8.88599
-9.1818
-9.48717
-9.80124
-10.123
-10.4511
-10.7842
-11.1207
-11.4587
-11.796
-12.1303
-12.4589
-12.7788
-13.087
-13.3801
-13.6544
-13.9064
-14.1321
-14.3278
-14.4896
-14.6139
-14.6971
-14.736
-14.7278
-14.6699
-14.5605
-14.398
-14.1813
-13.9101
-13.5844
-13.2048
-12.7722
-12.2882
-11.7546
-11.1736
-10.5476
-9.87928
-9.17168
-8.42789
-7.65124
-6.84527
-6.01369
-5.16039
-4.28952
-3.40545
-2.51284
-1.61653
-0.72163
0.166422
1.04212
1.89991
2.73423
3.5397
4.31126
5.04416
5.73419
6.37773
6.97192
7.51464
8.0046
8.44137
8.8253
9.1575
9.43977
9.67447
9.86446
10.013
10.1234
10.1995
10.2448
10.263
10.2577
10.2323
10.19
10.1338
10.0666
9.99087
9.90887
9.82265
9.734
9.64445
9.55531
9.46764
9.3823
9.29995
9.22105
9.14592
9.07475
9.00758
8.9444
8.88512
8.82962
8.77771
8.72922
8.68395
8.64172
8.60233
8.56561
8.53137
8.49945
8.4697
8.44196
8.41609
8.39197
8.36945
8.34843
8.32879
8.31042
8.29324
8.27714
8.26205
8.24788
8.23455
8.222
8.21015
8.19896
8.18837
8.17832
8.16876
8.15966
8.15097
8.14265
8.13467
8.127
8.11962
8.11248
8.10557
8.09887
8.09235
8.086
8.07981
8.07377
8.06787
8.06209
8.05646
8.05095
8.04559
8.04038
8.03534
8.0305
8.0259
8.02157
8.01758
8.014
8.01091
8.00843
8.00667
8.00576
8.00581
8.00687
8.00884
8.01128
8.0132
8.01226
8.00479
7.98276
-5.29726
-5.34888
-5.41618
-5.48318
-5.54775
-5.61447
-5.68699
-5.7676
-5.8579
-5.9591
-6.07208
-6.19749
-6.33577
-6.48723
-6.65207
-6.83039
-7.02221
-7.22752
-7.44622
-7.67818
-7.92321
-8.18106
-8.45143
-8.73391
-9.02802
-9.33315
-9.64858
-9.97344
-10.3067
-10.647
-10.9931
-11.3432
-11.6953
-12.0474
-12.3968
-12.741
-13.0768
-13.4009
-13.7099
-14
-14.2673
-14.5078
-14.7175
-14.8923
-15.0284
-15.1221
-15.1701
-15.1693
-15.1174
-15.0122
-14.8522
-14.6367
-14.3651
-14.0378
-13.6554
-13.2192
-12.7308
-12.1921
-11.6056
-10.9736
-10.2992
-9.58511
-8.8346
-8.05097
-7.23771
-6.39847
-5.53709
-4.65763
-3.76445
-2.8622
-1.95574
-1.05028
-0.151203
0.735924
1.6054
2.45158
3.26885
4.05189
4.79576
5.4961
6.14917
6.75204
7.3026
7.79962
8.24276
8.6325
8.97011
9.25753
9.49729
9.69238
9.84612
9.96207
10.0439
10.0953
10.12
10.1215
10.103
10.068
10.0191
9.95918
9.89065
9.81569
9.73626
9.65408
9.57064
9.48722
9.40486
9.32444
9.24662
9.17191
9.10066
9.03306
8.96921
8.90913
8.85274
8.79992
8.75052
8.70437
8.66128
8.62106
8.58354
8.54854
8.51589
8.48543
8.45702
8.4305
8.40575
8.38264
8.36105
8.34086
8.32199
8.30431
8.28775
8.27222
8.25764
8.24392
8.231
8.21882
8.20731
8.19642
8.1861
8.17628
8.16694
8.15803
8.14951
8.14134
8.1335
8.12595
8.11866
8.11161
8.10478
8.09814
8.09167
8.08537
8.07921
8.07318
8.06728
8.06151
8.05584
8.0503
8.04487
8.03958
8.03442
8.02943
8.02462
8.02003
8.0157
8.01168
8.00804
8.00483
8.00212
7.99998
7.99841
7.99735
7.99654
7.99538
7.99269
7.98618
7.97239
7.94471
-5.38723
-5.42732
-5.48212
-5.54083
-5.60107
-5.66565
-5.73722
-5.81758
-5.90809
-6.0098
-6.12355
-6.24997
-6.38956
-6.54265
-6.70952
-6.89031
-7.08513
-7.29398
-7.51685
-7.75364
-8.00419
-8.26829
-8.54566
-8.8359
-9.13855
-9.45301
-9.77856
-10.1143
-10.4592
-10.812
-11.1712
-11.5351
-11.9017
-12.2687
-12.6336
-12.9937
-13.3456
-13.686
-14.0112
-14.3173
-14.6003
-14.8558
-15.0797
-15.2678
-15.4161
-15.5206
-15.5779
-15.5849
-15.5391
-15.4385
-15.2816
-15.0676
-14.7963
-14.468
-14.0836
-13.6445
-13.1525
-12.6097
-12.0186
-11.3818
-10.7021
-9.98253
-9.22625
-8.43655
-7.61688
-6.77084
-5.90219
-5.01502
-4.11364
-3.20254
-2.28659
-1.37101
-0.461212
0.437113
1.31809
2.17582
3.0045
3.79856
4.55289
5.26292
5.92483
6.5356
7.09315
7.5963
8.04482
8.43935
8.78132
9.07286
9.31667
9.51589
9.67397
9.79459
9.88149
9.9384
9.969
9.97679
9.9651
9.93702
9.8954
9.84285
9.7817
9.71406
9.64179
9.56653
9.48969
9.4125
9.336
9.26101
9.18824
9.11818
9.05122
8.98758
8.9274
8.87071
8.81747
8.76759
8.72091
8.67729
8.63655
8.59851
8.56301
8.52987
8.49893
8.47005
8.44309
8.4179
8.39436
8.37236
8.35177
8.33251
8.31446
8.29754
8.28167
8.26675
8.25273
8.23952
8.22705
8.21528
8.20414
8.19358
8.18355
8.174
8.1649
8.1562
8.14787
8.13987
8.13218
8.12476
8.11759
8.11064
8.10389
8.09732
8.09092
8.08466
8.07854
8.07254
8.06665
8.06086
8.05518
8.04959
8.0441
8.03872
8.03344
8.02829
8.02327
8.01841
8.01373
8.00926
8.00504
8.00109
7.99742
7.99405
7.99088
7.98776
7.98431
7.97981
7.973
7.96166
7.94263
7.91046
-5.45099
-5.48088
-5.5235
-5.57329
-5.62822
-5.68969
-5.75937
-5.83859
-5.92842
-6.0298
-6.14349
-6.27014
-6.41025
-6.56423
-6.7324
-6.91499
-7.11214
-7.32393
-7.55038
-7.79144
-8.04699
-8.31685
-8.60073
-8.89829
-9.20904
-9.53241
-9.86765
-10.2139
-10.57
-10.9348
-11.3067
-11.684
-12.0645
-12.4461
-12.8261
-13.2015
-13.5691
-13.9253
-14.2663
-14.588
-14.8862
-15.1564
-15.3943
-15.5954
-15.7556
-15.8709
-15.9376
-15.9525
-15.9133
-15.8179
-15.6648
-15.4533
-15.1832
-14.8552
-14.4702
-14.0297
-13.5357
-12.9905
-12.3965
-11.7565
-11.0733
-10.3501
-9.58989
-8.79604
-7.97185
-7.1208
-6.24661
-5.35326
-4.44498
-3.52624
-2.60191
-1.67721
-0.757697
0.150812
1.04227
1.91055
2.74962
3.55368
4.31738
5.036
5.70558
6.32308
6.88641
7.39448
7.84718
8.24533
8.59053
8.88512
9.13196
9.33439
9.49598
9.62053
9.71184
9.77371
9.8098
9.82361
9.81841
9.79723
9.76283
9.71773
9.66416
9.60411
9.53935
9.47142
9.40165
9.3312
9.26106
9.19204
9.1248
9.05988
8.99765
8.93837
8.88221
8.82924
8.77943
8.73272
8.68898
8.64808
8.60987
8.57417
8.54083
8.50969
8.48059
8.45341
8.42799
8.40423
8.38199
8.36118
8.34168
8.3234
8.30625
8.29015
8.27502
8.26077
8.24735
8.23469
8.22272
8.2114
8.20066
8.19046
8.18075
8.1715
8.16266
8.15419
8.14607
8.13825
8.13072
8.12345
8.11641
8.10957
8.10292
8.09643
8.0901
8.08389
8.07781
8.07184
8.06596
8.06017
8.05447
8.04884
8.04329
8.03782
8.03242
8.0271
8.02187
8.01673
8.01169
8.00677
8.00196
7.99727
7.99266
7.98806
7.98335
7.97826
7.97233
7.96476
7.95426
7.93874
7.91536
7.8796
-5.47414
-5.4983
-5.52995
-5.57115
-5.62056
-5.67848
-5.74579
-5.82335
-5.912
-6.01253
-6.12563
-6.25195
-6.39203
-6.54633
-6.71523
-6.899
-7.09787
-7.31196
-7.54135
-7.78602
-8.04589
-8.32079
-8.61046
-8.91456
-9.23263
-9.56406
-9.90812
-10.2639
-10.6303
-11.0061
-11.3896
-11.7791
-12.1725
-12.5674
-12.9611
-13.3506
-13.7325
-14.1032
-14.4586
-14.7946
-15.1068
-15.3905
-15.6414
-15.8547
-16.0262
-16.1517
-16.2276
-16.2506
-16.2183
-16.1286
-15.9802
-15.7724
-15.5053
-15.1793
-14.7958
-14.3563
-13.8629
-13.3179
-12.7238
-12.0834
-11.3996
-10.6754
-9.91388
-9.11823
-8.29175
-7.43788
-6.56025
-5.66277
-4.74957
-3.82514
-2.89433
-1.9624
-1.03498
-0.11807
0.782112
1.65921
2.50695
3.31928
4.09064
4.81615
5.49175
6.11434
6.68187
7.19336
7.64883
8.04928
8.39651
8.69305
8.94197
9.14675
9.31114
9.439
9.53423
9.60066
9.64196
9.6616
9.66279
9.6485
9.6214
9.5839
9.53813
9.48597
9.42908
9.36889
9.30664
9.24343
9.18015
9.1176
9.0564
8.99708
8.94002
8.88552
8.83374
8.7848
8.73871
8.69542
8.65485
8.61687
8.58135
8.54815
8.51711
8.48809
8.46096
8.43557
8.41181
8.38956
8.36871
8.34917
8.33082
8.3136
8.29741
8.28218
8.26784
8.25431
8.24154
8.22947
8.21803
8.20718
8.19688
8.18707
8.17771
8.16877
8.16021
8.152
8.1441
8.13649
8.12914
8.12203
8.11512
8.10841
8.10186
8.09547
8.08921
8.08306
8.07703
8.07109
8.06523
8.05944
8.05372
8.04806
8.04244
8.03688
8.03136
8.02587
8.02042
8.01501
8.00962
8.00424
7.99886
7.99343
7.98788
7.98211
7.9759
7.96895
7.96072
7.95036
7.93659
7.91747
7.89045
7.85179
-5.4534
-5.47033
-5.49403
-5.52845
-5.57299
-5.6275
-5.69236
-5.76809
-5.85532
-5.9547
-6.06689
-6.19252
-6.33216
-6.48632
-6.65544
-6.83985
-7.03984
-7.25558
-7.48719
-7.73468
-7.99802
-8.27704
-8.57151
-8.88109
-9.20531
-9.54356
-9.8951
-10.259
-10.6342
-11.0193
-11.4127
-11.8126
-12.2169
-12.6231
-13.0284
-13.4299
-13.8239
-14.2068
-14.5745
-14.9227
-15.2469
-15.5423
-15.8044
-16.0284
-16.21
-16.345
-16.4296
-16.4607
-16.4358
-16.3529
-16.2106
-16.0085
-15.7464
-15.4251
-15.0457
-14.6101
-14.1201
-13.5782
-12.9871
-12.3493
-11.6678
-10.9456
-10.1857
-9.39115
-8.5653
-7.71148
-6.83324
-5.9344
-5.01903
-4.09161
-3.15699
-2.22047
-1.28778
-0.365062
0.541267
1.42463
2.2785
3.09662
3.87323
4.60329
5.28266
5.90824
6.47803
6.99116
7.4478
7.84914
8.19718
8.49464
8.74478
8.95122
9.11785
9.24862
9.34749
9.4183
9.46472
9.49018
9.49783
9.49057
9.47097
9.44132
9.40366
9.35974
9.31111
9.25909
9.20484
9.14934
9.09343
9.03784
8.98317
8.92992
8.87847
8.82913
8.78211
8.73754
8.69545
8.65583
8.61864
8.58377
8.55112
8.52056
8.49196
8.46519
8.44012
8.41664
8.39462
8.37397
8.35459
8.33638
8.31926
8.30316
8.28798
8.27368
8.26017
8.24741
8.23533
8.22388
8.21301
8.20267
8.19283
8.18343
8.17445
8.16585
8.15759
8.14965
8.142
8.1346
8.12744
8.1205
8.11374
8.10716
8.10073
8.09443
8.08825
8.08218
8.0762
8.07029
8.06446
8.05867
8.05294
8.04724
8.04157
8.03592
8.03027
8.02463
8.01897
8.01328
8.00753
8.00171
7.99576
7.98961
7.98316
7.97625
7.96864
7.95994
7.94958
7.9367
7.92004
7.89782
7.86775
7.82673
-5.38811
-5.398
-5.41508
-5.44386
-5.48422
-5.53562
-5.59808
-5.6719
-5.75754
-5.85557
-5.96659
-6.09123
-6.23009
-6.38372
-6.5526
-6.73713
-6.93763
-7.15432
-7.38736
-7.6368
-7.90261
-8.18466
-8.48271
-8.79642
-9.12532
-9.4688
-9.82609
-10.1962
-10.5781
-10.9704
-11.3714
-11.7793
-12.1918
-12.6067
-13.0209
-13.4314
-13.8346
-14.2268
-14.6039
-14.9614
-15.2949
-15.5995
-15.8705
-16.1033
-16.2935
-16.4368
-16.5294
-16.5684
-16.5512
-16.4759
-16.3412
-16.1464
-15.8916
-15.5774
-15.2052
-14.7764
-14.2933
-13.7581
-13.1733
-12.5417
-11.866
-11.1493
-10.3944
-9.60442
-8.78256
-7.93211
-7.05655
-6.15964
-5.24542
-4.31833
-3.38324
-2.4455
-1.51095
-0.585857
0.323167
1.20935
2.06595
2.88651
3.66513
4.39667
5.07694
5.70288
6.27256
6.78525
7.24129
7.64204
7.98969
8.28714
8.5378
8.74542
8.91399
9.04751
9.14999
9.22527
9.27697
9.30849
9.3229
9.32299
9.31124
9.28985
9.2607
9.22547
9.18556
9.14219
9.09642
9.04913
9.00108
8.95295
8.90529
8.85856
8.81316
8.76939
8.72749
8.68759
8.64978
8.61408
8.58048
8.54891
8.51929
8.49152
8.46549
8.44108
8.41818
8.39669
8.37651
8.35754
8.33969
8.32289
8.30706
8.29212
8.27801
8.26468
8.25206
8.24009
8.22874
8.21795
8.20768
8.19788
8.18852
8.17957
8.17098
8.16274
8.1548
8.14715
8.13975
8.13259
8.12564
8.11887
8.11228
8.10584
8.09953
8.09334
8.08725
8.08125
8.07532
8.06946
8.06365
8.05788
8.05213
8.0464
8.04067
8.03494
8.02918
8.02337
8.01751
8.01155
8.00547
7.99921
7.9927
7.98587
7.97855
7.97057
7.96163
7.95131
7.93901
7.92387
7.90467
7.87976
7.84714
7.80417
-5.28243
-5.28404
-5.29503
-5.31882
-5.35517
-5.4033
-5.46305
-5.53459
-5.6183
-5.71467
-5.82425
-5.94765
-6.08549
-6.2383
-6.40661
-6.59084
-6.79135
-7.00838
-7.24213
-7.49265
-7.75993
-8.04385
-8.34417
-8.66055
-8.99249
-9.33937
-9.70041
-10.0746
-10.4609
-10.8578
-11.2636
-11.6766
-12.0944
-12.5146
-12.9343
-13.3504
-13.7594
-14.1574
-14.5403
-14.9038
-15.2433
-15.554
-15.8314
-16.0707
-16.2676
-16.4178
-16.5177
-16.5645
-16.5554
-16.4887
-16.3629
-16.1774
-15.9323
-15.6281
-15.266
-14.8476
-14.3748
-13.8498
-13.2752
-12.6534
-11.9873
-11.2797
-10.5335
-9.75175
-8.9375
-8.09402
-7.22477
-6.33342
-5.42403
-4.50099
-3.56923
-2.63414
-1.70167
-0.77824
0.129383
1.01424
1.86942
2.68834
3.46499
4.1942
4.87181
5.49483
6.06148
6.57117
7.02444
7.42282
7.76868
8.06507
8.31551
8.52386
8.69415
8.83043
8.93669
9.01674
9.07415
9.11222
9.13395
9.14201
9.13877
9.12629
9.10636
9.08049
9.05
9.01598
8.97937
8.94097
8.90146
8.86143
8.82139
8.78178
8.74297
8.70529
8.66897
8.63417
8.60101
8.56955
8.53982
8.5118
8.48543
8.46064
8.43735
8.41545
8.39486
8.37549
8.35725
8.34006
8.32385
8.30854
8.29406
8.28037
8.2674
8.25509
8.24341
8.2323
8.22172
8.21163
8.20199
8.19277
8.18393
8.17545
8.16728
8.15942
8.15183
8.14448
8.13736
8.13044
8.12371
8.11714
8.11072
8.10443
8.09825
8.09218
8.08618
8.08027
8.07441
8.06859
8.06281
8.05705
8.0513
8.04554
8.03977
8.03395
8.02808
8.02212
8.01606
8.00984
8.00343
7.99675
7.98972
7.98222
7.97409
7.9651
7.95492
7.94312
7.92906
7.91189
7.89046
7.86325
7.82847
7.78391
-5.15152
-5.14325
-5.14725
-5.16568
-5.19721
-5.24106
-5.29712
-5.36557
-5.44671
-5.54094
-5.64878
-5.77074
-5.9074
-6.05926
-6.22682
-6.41049
-6.61062
-6.82747
-7.0612
-7.31191
-7.57956
-7.86403
-8.16508
-8.48235
-8.81533
-9.16338
-9.5257
-9.90129
-10.289
-10.6873
-11.0946
-11.509
-11.9283
-12.3499
-12.7711
-13.1886
-13.599
-13.9985
-14.383
-14.7483
-15.0899
-15.4031
-15.6835
-15.9263
-16.1274
-16.2827