/*--------------------------------*- C++ -*----------------------------------*\
| =========                 |                                                 |
| \\      /  F ield         | OpenFOAM: The Open Source CFD Toolbox           |
|  \\    /   O peration     | Version:  2412                                  |
|   \\  /    A nd           | Website:  www.openfoam.com                      |
|    \\/     M anipulation  |                                                 |
\*---------------------------------------------------------------------------*/
FoamFile
{
    version     2.0;
    format      ascii;
    arch        "LSB;label=32;scalar=64";
    class       surfaceScalarField;
    location    "0.02";
    object      phi;
}
// * * * * * * * * * * * * * * * * * * * * * * * * * * * * * * * * * * * * * //

dimensions      [0 3 -1 0 0 0 0];

oriented        oriented;

internalField   nonuniform List<scalar> 
24170
(
1.36814e-07
-5.72698e-08
1.95559e-07
-5.87454e-08
2.57755e-07
-6.21951e-08
3.11423e-07
-5.36684e-08
3.61475e-07
-5.00517e-08
4.07491e-07
-4.60161e-08
4.49032e-07
-4.15412e-08
4.86434e-07
-3.74016e-08
5.20072e-07
-3.36389e-08
5.50275e-07
-3.02023e-08
5.77351e-07
-2.70767e-08
6.01579e-07
-2.42272e-08
6.23183e-07
-2.16041e-08
6.42329e-07
-1.91462e-08
6.59166e-07
-1.68373e-08
6.73674e-07
-1.45078e-08
6.86567e-07
-1.28929e-08
-1.09485e-08
6.97515e-07
3.26022e-07
-1.2484e-07
3.94032e-07
-1.26755e-07
4.55716e-07
-1.23879e-07
5.13936e-07
-1.11888e-07
5.67345e-07
-1.03461e-07
6.16211e-07
-9.48819e-08
6.60752e-07
-8.60816e-08
7.01183e-07
-7.78331e-08
7.37793e-07
-7.0249e-08
7.7089e-07
-6.32993e-08
8.00765e-07
-5.69517e-08
8.27675e-07
-5.11374e-08
8.51835e-07
-4.57637e-08
8.7341e-07
-4.07207e-08
8.92512e-07
-3.59397e-08
9.09191e-07
-3.1187e-08
9.23448e-07
-2.71492e-08
-2.12605e-08
9.3376e-07
5.17183e-07
-1.71566e-07
5.79057e-07
-1.8863e-07
6.38056e-07
-1.82878e-07
6.95141e-07
-1.68973e-07
7.47877e-07
-1.56197e-07
7.96398e-07
-1.43404e-07
8.40949e-07
-1.30632e-07
8.81656e-07
-1.1854e-07
9.18726e-07
-1.07319e-07
9.52409e-07
-9.6983e-08
9.82953e-07
-8.74955e-08
1.01058e-06
-7.8764e-08
1.03548e-06
-7.06624e-08
1.0578e-06
-6.30399e-08
1.07762e-06
-5.5761e-08
1.09499e-06
-4.85584e-08
1.10946e-06
-4.16176e-08
-3.22794e-08
1.12048e-06
7.43442e-07
-1.95339e-07
7.91842e-07
-2.3703e-07
8.43697e-07
-2.34732e-07
8.96166e-07
-2.21442e-07
9.4576e-07
-2.05791e-07
9.91965e-07
-1.89609e-07
1.03479e-06
-1.73461e-07
1.07424e-06
-1.57984e-07
1.1104e-06
-1.43478e-07
1.14344e-06
-1.30024e-07
1.17354e-06
-1.17599e-07
1.20088e-06
-1.06103e-07
1.22561e-06
-9.53892e-08
1.24784e-06
-8.5275e-08
1.26765e-06
-7.55639e-08
1.28502e-06
-6.5935e-08
1.29959e-06
-5.61895e-08
-4.41087e-08
1.31142e-06
1.0149e-06
-1.99766e-07
1.04725e-06
-2.69378e-07
1.08842e-06
-2.7591e-07
1.13323e-06
-2.6625e-07
1.1773e-06
-2.49861e-07
1.21923e-06
-2.31543e-07
1.25865e-06
-2.1288e-07
1.29536e-06
-1.94687e-07
1.3293e-06
-1.77419e-07
1.36053e-06
-1.61257e-07
1.38915e-06
-1.46221e-07
1.41527e-06
-1.32222e-07
1.43899e-06
-1.19111e-07
1.4604e-06
-1.06683e-07
1.47954e-06
-9.47004e-08
1.49641e-06
-8.28041e-08
1.51082e-06
-7.05973e-08
-5.63624e-08
1.52307e-06
1.33806e-06
-1.90387e-07
1.35422e-06
-2.85534e-07
1.38236e-06
-3.04054e-07
1.41683e-06
-3.00715e-07
1.45299e-06
-2.86021e-07
1.48861e-06
-2.67166e-07
1.52284e-06
-2.4711e-07
1.55523e-06
-2.27075e-07
1.58555e-06
-2.0774e-07
1.61372e-06
-1.89433e-07
1.63975e-06
-1.72243e-07
1.66364e-06
-1.56121e-07
1.68547e-06
-1.40932e-07
1.70525e-06
-1.26471e-07
1.72303e-06
-1.12481e-07
1.73883e-06
-9.85988e-08
1.7526e-06
-8.43698e-08
-6.85324e-08
1.76477e-06
1.71765e-06
-1.72761e-07
1.71926e-06
-2.87141e-07
1.73346e-06
-3.18254e-07
1.75562e-06
-3.22871e-07
1.7817e-06
-3.12106e-07
1.80901e-06
-2.94471e-07
1.83623e-06
-2.74333e-07
1.86266e-06
-2.53505e-07
1.88788e-06
-2.32959e-07
1.91165e-06
-2.13209e-07
1.93387e-06
-1.94454e-07
1.95445e-06
-1.76708e-07
1.97339e-06
-1.59872e-07
1.99069e-06
-1.43764e-07
2.00634e-06
-1.28135e-07
2.0204e-06
-1.12654e-07
2.03292e-06
-9.68953e-08
-7.99883e-08
2.04438e-06
2.15732e-06
-1.51392e-07
2.14714e-06
-2.76959e-07
2.148e-06
-3.19109e-07
2.15698e-06
-3.31852e-07
2.1714e-06
-3.26526e-07
2.18865e-06
-3.11722e-07
2.20717e-06
-2.92852e-07
2.22604e-06
-2.72374e-07
2.24466e-06
-2.51585e-07
2.26267e-06
-2.31212e-07
2.27981e-06
-2.11594e-07
2.29593e-06
-1.92832e-07
2.31095e-06
-1.74887e-07
2.3248e-06
-1.5762e-07
2.33749e-06
-1.4082e-07
2.34904e-06
-1.24212e-07
2.3596e-06
-1.07455e-07
-8.9994e-08
2.36961e-06
2.6601e-06
-1.29304e-07
2.64124e-06
-2.58101e-07
2.63053e-06
-3.084e-07
2.62676e-06
-3.28075e-07
2.62885e-06
-3.28623e-07
2.6349e-06
-3.17774e-07
2.64339e-06
-3.01341e-07
2.65332e-06
-2.82306e-07
2.664e-06
-2.62264e-07
2.67494e-06
-2.42146e-07
2.68578e-06
-2.22439e-07
2.6963e-06
-2.03353e-07
2.70634e-06
-1.84922e-07
2.71579e-06
-1.67071e-07
2.72462e-06
-1.49649e-07
2.73286e-06
-1.32454e-07
2.74066e-06
-1.15256e-07
-9.77436e-08
2.74841e-06
3.22873e-06
-1.08172e-07
3.20398e-06
-2.33356e-07
3.18406e-06
-2.88473e-07
3.16904e-06
-3.13054e-07
3.15926e-06
-3.18843e-07
3.15383e-06
-3.12352e-07
3.15161e-06
-2.99115e-07
3.15169e-06
-2.8239e-07
3.1534e-06
-2.63976e-07
3.15621e-06
-2.44952e-07
3.15971e-06
-2.25938e-07
3.1636e-06
-2.07248e-07
3.16768e-06
-1.89001e-07
3.17181e-06
-1.71197e-07
3.17592e-06
-1.53756e-07
3.18002e-06
-1.36558e-07
3.18425e-06
-1.19488e-07
-1.02408e-07
3.18892e-06
3.8657e-06
-8.88435e-08
3.83717e-06
-2.04825e-07
3.81025e-06
-2.6156e-07
3.7861e-06
-2.88898e-07
3.76587e-06
-2.98614e-07
3.74968e-06
-2.9616e-07
3.73691e-06
-2.86345e-07
3.72693e-06
-2.72415e-07
3.71921e-06
-2.56254e-07
3.71327e-06
-2.39008e-07
3.70871e-06
-2.21378e-07
3.70522e-06
-2.03762e-07
3.70258e-06
-1.86357e-07
3.70062e-06
-1.69235e-07
3.69925e-06
-1.52389e-07
3.69847e-06
-1.35779e-07
3.69838e-06
-1.19395e-07
-1.03209e-07
3.69918e-06
3.81123e-06
-7.31694e-08
3.78552e-06
-1.79114e-07
3.75885e-06
-2.34894e-07
3.73306e-06
-2.63106e-07
3.70945e-06
-2.75006e-07
3.68862e-06
-2.75322e-07
3.67045e-06
-2.68178e-07
3.65469e-06
-2.56655e-07
3.64105e-06
-2.42618e-07
3.62925e-06
-2.27204e-07
3.61901e-06
-2.11138e-07
3.6101e-06
-1.94857e-07
3.60235e-06
-1.78607e-07
3.59563e-06
-1.62509e-07
3.58985e-06
-1.4661e-07
3.585e-06
-1.30933e-07
3.58109e-06
-1.15485e-07
-1.00513e-07
3.57839e-06
5.03713e-06
-5.7544e-08
5.00709e-06
-1.49067e-07
4.97366e-06
-2.01471e-07
4.93965e-06
-2.29093e-07
4.90676e-06
-2.42119e-07
4.87614e-06
-2.44702e-07
4.84809e-06
-2.40126e-07
4.82258e-06
-2.31146e-07
4.7995e-06
-2.19536e-07
4.77868e-06
-2.06382e-07
4.75992e-06
-1.9238e-07
4.74304e-06
-1.77976e-07
4.72788e-06
-1.63445e-07
4.71431e-06
-1.48945e-07
4.70227e-06
-1.34571e-07
4.69173e-06
-1.2039e-07
4.68271e-06
-1.06461e-07
-9.3146e-08
4.67534e-06
6.66245e-06
-4.2526e-08
6.62917e-06
-1.15786e-07
6.58928e-06
-1.61582e-07
6.54693e-06
-1.86737e-07
6.50425e-06
-1.9944e-07
6.46291e-06
-2.03366e-07
6.42372e-06
-2.00934e-07
6.38694e-06
-1.9437e-07
6.35268e-06
-1.85271e-07
6.32093e-06
-1.74629e-07
6.29162e-06
-1.63074e-07
6.26467e-06
-1.51026e-07
6.23999e-06
-1.38759e-07
6.21749e-06
-1.26451e-07
6.19714e-06
-1.14222e-07
6.17892e-06
-1.02167e-07
6.16284e-06
-9.038e-08
-7.92592e-08
6.14895e-06
8.79089e-06
-2.87532e-08
8.75655e-06
-8.1442e-08
8.71195e-06
-1.16985e-07
8.66245e-06
-1.37236e-07
8.61075e-06
-1.47747e-07
8.559e-06
-1.5161e-07
8.50856e-06
-1.50494e-07
8.46013e-06
-1.45938e-07
8.41406e-06
-1.39205e-07
8.37056e-06
-1.31128e-07
8.32972e-06
-1.22234e-07
8.29157e-06
-1.12879e-07
8.25613e-06
-1.03312e-07
8.22338e-06
-9.37027e-08
8.19333e-06
-8.41759e-08
8.166e-06
-7.48352e-08
8.14139e-06
-6.57681e-08
-5.73901e-08
8.11952e-06
1.15181e-05
-1.65222e-08
1.14849e-05
-4.82327e-08
1.14387e-05
-7.0747e-08
1.13851e-05
-8.36612e-08
1.13273e-05
-9.0015e-08
1.12678e-05
-9.20832e-08
1.12083e-05
-9.0982e-08
1.115e-05
-8.76028e-08
1.10935e-05
-8.27589e-08
1.10394e-05
-7.70306e-08
1.0988e-05
-7.07843e-08
1.09394e-05
-6.42667e-08
1.08937e-05
-5.76584e-08
1.08511e-05
-5.10942e-08
1.08116e-05
-4.46756e-08
1.07753e-05
-3.84942e-08
1.07421e-05
-3.26007e-08
-2.74119e-08
1.07121e-05
1.48843e-05
-5.36795e-09
1.48527e-05
-1.66372e-08
1.48067e-05
-2.47298e-08
1.47518e-05
-2.87506e-08
1.46915e-05
-2.9792e-08
1.46284e-05
-2.89869e-08
1.45644e-05
-2.6899e-08
1.45007e-05
-2.3907e-08
1.44383e-05
-2.03775e-08
1.43778e-05
-1.65958e-08
1.43198e-05
-1.27424e-08
1.42645e-05
-8.93516e-09
1.42121e-05
-5.26262e-09
1.41628e-05
-1.79744e-09
1.41167e-05
1.39757e-09
1.40739e-05
4.27207e-09
1.40345e-05
6.83097e-09
8.69695e-09
1.39984e-05
1.87691e-05
6.25714e-09
1.87367e-05
1.57752e-08
1.86887e-05
2.32586e-08
1.86308e-05
2.91441e-08
1.85671e-05
3.38376e-08
1.85005e-05
3.76357e-08
1.84329e-05
4.07257e-08
1.83658e-05
4.32443e-08
1.83001e-05
4.5295e-08
1.82365e-05
4.69484e-08
1.81755e-05
4.82488e-08
1.81174e-05
4.92227e-08
1.80622e-05
4.98828e-08
1.80102e-05
5.02303e-08
1.79613e-05
5.02634e-08
1.79157e-05
4.99589e-08
1.78731e-05
4.93626e-08
4.81992e-08
1.78336e-05
2.26768e-05
1.69704e-08
2.26399e-05
5.26574e-08
2.25836e-05
7.95495e-08
2.25152e-05
9.75924e-08
2.24397e-05
1.09339e-07
2.23605e-05
1.16821e-07
2.22801e-05
1.21113e-07
2.22004e-05
1.23004e-07
2.21225e-05
1.23197e-07
2.20472e-05
1.22216e-07
2.1975e-05
1.20401e-07
2.19063e-05
1.17977e-07
2.18411e-05
1.15099e-07
2.17794e-05
1.11876e-07
2.17213e-05
1.08381e-07
2.16666e-05
1.04659e-07
2.16152e-05
1.00771e-07
9.65714e-08
2.15668e-05
1.56039e-05
3.26329e-08
1.55641e-05
9.254e-08
1.5509e-05
1.34618e-07
1.54455e-05
1.61124e-07
1.53774e-05
1.77408e-07
1.53075e-05
1.86709e-07
1.52379e-05
1.9076e-07
1.51698e-05
1.91028e-07
1.51043e-05
1.8876e-07
1.50417e-05
1.84824e-07
1.49823e-05
1.7978e-07
1.49262e-05
1.74013e-07
1.48735e-05
1.67793e-07
1.48241e-05
1.61308e-07
1.47778e-05
1.54686e-07
1.47345e-05
1.48016e-07
1.46939e-05
1.4136e-07
1.34653e-07
1.46558e-05
1.23902e-05
5.12494e-08
1.23447e-05
1.38059e-07
1.22862e-05
1.93077e-07
1.22222e-05
2.25177e-07
1.2156e-05
2.43551e-07
1.20904e-05
2.52334e-07
1.20271e-05
2.54071e-07
1.1967e-05
2.511e-07
1.19106e-05
2.45177e-07
1.1858e-05
2.37426e-07
1.18092e-05
2.28572e-07
1.17641e-05
2.19111e-07
1.17225e-05
2.09383e-07
1.16842e-05
1.99612e-07
1.1649e-05
1.89944e-07
1.16165e-05
1.80477e-07
1.15866e-05
1.7126e-07
1.62276e-07
1.1559e-05
9.55926e-06
7.55764e-08
9.50972e-06
1.87605e-07
9.45354e-06
2.49251e-07
9.39655e-06
2.82176e-07
9.34108e-06
2.9902e-07
9.28913e-06
3.04284e-07
9.24164e-06
3.01558e-07
9.19875e-06
2.93986e-07
9.16032e-06
2.83614e-07
9.12607e-06
2.71672e-07
9.09569e-06
2.58958e-07
9.06879e-06
2.46002e-07
9.04503e-06
2.33145e-07
9.02405e-06
2.20592e-07
9.00553e-06
2.08467e-07
8.98917e-06
1.96839e-07
8.9747e-06
1.85731e-07
1.75144e-07
8.96183e-06
7.18002e-06
1.05007e-07
7.13259e-06
2.35032e-07
7.08685e-06
2.94991e-07
7.0451e-06
3.23929e-07
7.00861e-06
3.35512e-07
6.97831e-06
3.3458e-07
6.95388e-06
3.25987e-07
6.93455e-06
3.13319e-07
6.91958e-06
2.98585e-07
6.9083e-06
2.82954e-07
6.90009e-06
2.67167e-07
6.89441e-06
2.51677e-07
6.89081e-06
2.36743e-07
6.88891e-06
2.225e-07
6.88837e-06
2.09007e-07
6.88892e-06
1.96283e-07
6.89034e-06
1.84309e-07
1.73082e-07
6.89241e-06
5.24555e-06
1.38172e-07
5.20782e-06
2.72759e-07
5.1803e-06
3.2251e-07
5.16133e-06
3.42903e-07
5.15083e-06
3.46013e-07
5.14774e-06
3.37666e-07
5.15024e-06
3.23492e-07
5.15681e-06
3.06745e-07
5.16636e-06
2.89035e-07
5.17803e-06
2.71284e-07
5.19116e-06
2.54043e-07
5.20523e-06
2.37605e-07
5.21986e-06
2.22105e-07
5.23478e-06
2.07587e-07
5.24975e-06
1.94039e-07
5.2646e-06
1.81424e-07
5.27922e-06
1.6969e-07
1.58823e-07
5.29348e-06
3.71461e-06
1.717e-07
3.69604e-06
2.91325e-07
3.69432e-06
3.24227e-07
3.70412e-06
3.33108e-07
3.72301e-06
3.27122e-07
3.74773e-06
3.1294e-07
3.77572e-06
2.95504e-07
3.80542e-06
2.77047e-07
3.83583e-06
2.58627e-07
3.86626e-06
2.40854e-07
3.89625e-06
2.24052e-07
3.9255e-06
2.08355e-07
3.95381e-06
1.93791e-07
3.98107e-06
1.80328e-07
4.00721e-06
1.67903e-07
4.03219e-06
1.56442e-07
4.05601e-06
1.45871e-07
1.36176e-07
4.07866e-06
2.53539e-06
1.96902e-07
2.54623e-06
2.80494e-07
2.5748e-06
2.95656e-07
2.61403e-06
2.93874e-07
2.65936e-06
2.81797e-07
2.70678e-06
2.6552e-07
2.75426e-06
2.48024e-07
2.80079e-06
2.30514e-07
2.84578e-06
2.1364e-07
2.88888e-06
1.97754e-07
2.92992e-06
1.83005e-07
2.96886e-06
1.6942e-07
3.00569e-06
1.56959e-07
3.04047e-06
1.4555e-07
3.07327e-06
1.35105e-07
3.10417e-06
1.25537e-07
3.13328e-06
1.16766e-07
1.08795e-07
3.16066e-06
1.65469e-06
1.99322e-07
1.70056e-06
2.34622e-07
1.75706e-06
2.39156e-07
1.81976e-06
2.31178e-07
1.88362e-06
2.17931e-07
1.94569e-06
2.03453e-07
2.00508e-06
1.88631e-07
2.06143e-06
1.74167e-07
2.11454e-06
1.60528e-07
2.1644e-06
1.47892e-07
2.21111e-06
1.36303e-07
2.25479e-06
1.25734e-07
2.29563e-06
1.1612e-07
2.3338e-06
1.07378e-07
2.36948e-06
9.94232e-08
2.40285e-06
9.21736e-08
2.43406e-06
8.55515e-08
7.95974e-08
2.46326e-06
1.01823e-06
1.63953e-07
1.09489e-06
1.57962e-07
1.17027e-06
1.63777e-07
1.24671e-06
1.54737e-07
1.32005e-06
1.44587e-07
1.38894e-06
1.34563e-07
1.45343e-06
1.24138e-07
1.51358e-06
1.14024e-07
1.56947e-06
1.04633e-07
1.62134e-06
9.60296e-08
1.66944e-06
8.82028e-08
1.71405e-06
8.11166e-08
1.75546e-06
7.47117e-08
1.79392e-06
6.89191e-08
1.82967e-06
6.36712e-08
1.86294e-06
5.89078e-08
1.89394e-06
5.45507e-08
5.06792e-08
1.92286e-06
5.69128e-07
8.47423e-08
6.59005e-07
6.80847e-08
7.40836e-07
8.19464e-08
8.20948e-07
7.46255e-08
8.95927e-07
6.9607e-08
9.65423e-07
6.50679e-08
1.02974e-06
5.98168e-08
1.08911e-06
5.46628e-08
1.14378e-06
4.99557e-08
1.19413e-06
4.56844e-08
1.24051e-06
4.18197e-08
1.28329e-06
3.83409e-08
1.32278e-06
3.5214e-08
1.3593e-06
3.23993e-08
1.39312e-06
2.98585e-08
1.42446e-06
2.75635e-08
1.45357e-06
2.54428e-08
2.35513e-08
1.4807e-06
2.22666e-07
2.90751e-07
3.72698e-07
4.47323e-07
5.1693e-07
5.81998e-07
6.41815e-07
6.96478e-07
7.46433e-07
7.92118e-07
8.33938e-07
8.72279e-07
9.07493e-07
9.39892e-07
9.6975e-07
9.97314e-07
1.02276e-06
1.04631e-06
9.81153e-08
-9.81153e-08
1.79331e-07
-8.12157e-08
2.29841e-07
-5.05096e-08
2.5258e-07
-2.27395e-08
2.53756e-07
-1.17576e-09
2.40351e-07
1.3405e-08
2.17616e-07
2.27347e-08
1.87885e-07
2.97307e-08
1.515e-07
3.63859e-08
1.07949e-07
4.35504e-08
5.64965e-08
5.14526e-08
-3.67826e-09
6.01748e-08
-7.34211e-08
6.97428e-08
-1.5339e-07
7.9969e-08
-2.44033e-07
9.06431e-08
-3.45635e-07
1.01602e-07
-4.58275e-07
1.1264e-07
-5.81798e-07
1.23522e-07
-7.15795e-07
1.33998e-07
-8.59614e-07
1.43819e-07
-1.01237e-06
1.52756e-07
-1.17299e-06
1.60617e-07
-1.34024e-06
1.67251e-07
-1.5128e-06
1.72556e-07
-1.68928e-06
1.76482e-07
-1.8683e-06
1.79021e-07
-2.04851e-06
1.80208e-07
-2.22861e-06
1.80106e-07
-2.40741e-06
1.78801e-07
-2.58381e-06
1.76394e-07
-2.7568e-06
1.72989e-07
-2.92549e-06
1.68691e-07
-3.08908e-06
1.63596e-07
-3.24687e-06
1.57792e-07
-3.39823e-06
1.51355e-07
-3.54257e-06
1.44344e-07
-3.67938e-06
1.36811e-07
-3.80818e-06
1.28794e-07
-3.9285e-06
1.20321e-07
-4.03991e-06
1.11412e-07
-4.14199e-06
1.02078e-07
-4.23432e-06
9.23271e-08
-4.31648e-06
8.21666e-08
-4.38809e-06
7.16025e-08
-4.44873e-06
6.06402e-08
-4.49802e-06
4.92911e-08
-4.5356e-06
3.75834e-08
-4.56117e-06
2.55712e-08
-4.57456e-06
1.33907e-08
-4.57591e-06
1.35043e-09
-4.56697e-06
-8.93981e-09
-4.54788e-06
-1.90889e-08
-4.51894e-06
-2.8944e-08
-4.48025e-06
-3.8685e-08
-4.43187e-06
-4.83853e-08
-4.3738e-06
-5.80673e-08
-4.30607e-06
-6.77292e-08
-4.22871e-06
-7.73583e-08
-4.14178e-06
-8.69366e-08
-4.04533e-06
-9.64446e-08
-3.93947e-06
-1.05862e-07
-3.8243e-06
-1.15167e-07
-3.69996e-06
-1.24339e-07
-3.56661e-06
-1.33356e-07
-3.42442e-06
-1.42192e-07
-3.27359e-06
-1.50823e-07
-3.11438e-06
-1.59218e-07
-2.94703e-06
-1.67345e-07
-2.77186e-06
-1.75168e-07
-2.58922e-06
-1.82645e-07
-2.39949e-06
-1.8973e-07
-2.20312e-06
-1.96372e-07
-2.0006e-06
-2.02516e-07
-1.7925e-06
-2.08101e-07
-1.57944e-06
-2.13061e-07
-1.36211e-06
-2.17328e-07
-1.14129e-06
-2.20823e-07
-9.1783e-07
-2.23458e-07
-6.9271e-07
-2.25119e-07
-4.67037e-07
-2.25673e-07
-2.42009e-07
-2.25028e-07
-1.81857e-08
-2.23823e-07
2.04055e-07
-2.22241e-07
4.23672e-07
-2.19617e-07
6.39514e-07
-2.15842e-07
8.50559e-07
-2.11045e-07
1.05585e-06
-2.05287e-07
1.25446e-06
-1.98619e-07
1.44555e-06
-1.9109e-07
1.62831e-06
-1.82758e-07
1.802e-06
-1.73692e-07
1.96597e-06
-1.63967e-07
2.11964e-06
-1.5367e-07
2.26254e-06
-1.42898e-07
2.3943e-06
-1.31758e-07
2.51466e-06
-1.20363e-07
2.62349e-06
-1.08834e-07
2.72079e-06
-9.72998e-08
2.80668e-06
-8.58875e-08
2.88141e-06
-7.4725e-08
2.94534e-06
-6.39353e-08
2.99897e-06
-5.36317e-08
3.04289e-06
-4.39142e-08
3.07775e-06
-3.48654e-08
3.10429e-06
-2.65348e-08
3.12323e-06
-1.89441e-08
3.13531e-06
-1.20759e-08
3.14087e-06
-5.56495e-09
3.13987e-06
1.00112e-09
3.13301e-06
6.85659e-09
3.12184e-06
1.11766e-08
3.10764e-06
1.42022e-08
3.0914e-06
1.62354e-08
3.0739e-06
1.7497e-08
3.05573e-06
1.81772e-08
3.03729e-06
1.84328e-08
3.01891e-06
1.83843e-08
3.00079e-06
1.81212e-08
2.98308e-06
1.77095e-08
2.96588e-06
1.71979e-08
2.94926e-06
1.66214e-08
2.93325e-06
1.60053e-08
2.91789e-06
1.53677e-08
2.90316e-06
1.47219e-08
2.88909e-06
1.40779e-08
2.87564e-06
1.34437e-08
2.86282e-06
1.28258e-08
2.85059e-06
1.22295e-08
2.83893e-06
1.16592e-08
2.82781e-06
1.1118e-08
2.8172e-06
1.06079e-08
2.80707e-06
1.01301e-08
2.79739e-06
9.68465e-09
2.78812e-06
9.27114e-09
2.77923e-06
8.88858e-09
2.77069e-06
8.53571e-09
2.76248e-06
8.21103e-09
2.75457e-06
7.91317e-09
2.74693e-06
7.64053e-09
2.73954e-06
7.39165e-09
2.73237e-06
7.16515e-09
2.72541e-06
6.95967e-09
2.71864e-06
6.77398e-09
2.71203e-06
6.60685e-09
2.70557e-06
6.45723e-09
2.69925e-06
6.3242e-09
2.69304e-06
6.20728e-09
2.68693e-06
6.10716e-09
2.68091e-06
6.02479e-09
2.67495e-06
5.95858e-09
2.66904e-06
5.90607e-09
2.66318e-06
5.86646e-09
2.65734e-06
5.83948e-09
2.65151e-06
5.82479e-09
2.64569e-06
5.82262e-09
2.63986e-06
5.83368e-09
2.634e-06
5.85922e-09
2.6281e-06
5.9009e-09
2.62214e-06
5.96089e-09
2.61609e-06
6.0418e-09
2.60995e-06
6.14743e-09
2.60366e-06
6.28305e-09
2.59721e-06
6.45582e-09
2.59053e-06
6.67491e-09
2.58358e-06
6.95258e-09
2.57628e-06
7.30542e-09
2.56852e-06
7.75614e-09
2.56018e-06
8.33613e-09
2.55109e-06
9.08915e-09
2.54102e-06
1.00776e-08
2.52962e-06
1.13931e-08
2.51645e-06
1.31734e-08
2.50082e-06
1.56341e-08
2.48169e-06
1.91231e-08
2.45745e-06
2.42424e-08
2.42544e-06
3.2008e-08
2.38076e-06
4.46814e-08
2.31594e-06
6.48177e-08
2.20848e-06
1.07464e-07
1.57186e-07
2.05129e-06
3.00882e-08
-1.28204e-07
2.31719e-08
-7.42994e-08
-4.9929e-11
-2.72877e-08
-3.28259e-08
1.00365e-08
-7.41608e-08
4.01591e-08
-1.25267e-07
6.45114e-08
-1.87439e-07
8.49064e-08
-2.61055e-07
1.03347e-07
-3.46023e-07
1.21354e-07
-4.42223e-07
1.39751e-07
-5.49583e-07
1.58813e-07
-6.67898e-07
1.7849e-07
-7.96709e-07
1.98554e-07
-9.35396e-07
2.18655e-07
-1.08313e-06
2.38376e-07
-1.2388e-06
2.57275e-07
-1.40108e-06
2.74916e-07
-1.56845e-06
2.90894e-07
-1.73931e-06
3.04857e-07
-1.91202e-06
3.16527e-07
-2.08497e-06
3.2571e-07
-2.25666e-06
3.32305e-07
-2.42571e-06
3.36302e-07
-2.59092e-06
3.37768e-07
-2.75128e-06
3.36838e-07
-2.90596e-06
3.337e-07
-3.05432e-06
3.28571e-07
-3.1959e-06
3.21686e-07
-3.33038e-06
3.13281e-07
-3.45756e-06
3.0358e-07
-3.57736e-06
2.92788e-07
-3.68976e-06
2.81083e-07
-3.79477e-06
2.68614e-07
-3.89248e-06
2.55502e-07
-3.98297e-06
2.4184e-07
-4.06632e-06
2.27695e-07
-4.14262e-06
2.13115e-07
-4.21196e-06
1.98131e-07
-4.2744e-06
1.82762e-07
-4.33001e-06
1.6702e-07
-4.37884e-06
1.50911e-07
-4.42096e-06
1.34444e-07
-4.45642e-06
1.1763e-07
-4.48531e-06
1.00488e-07
-4.50771e-06
8.30437e-08
-4.52376e-06
6.53417e-08
-4.53362e-06
4.74418e-08
-4.53747e-06
2.94211e-08
-4.53543e-06
1.13543e-08
-4.52719e-06
-6.88968e-09
-4.51092e-06
-2.5216e-08
-4.48615e-06
-4.38611e-08
-4.45239e-06
-6.26971e-08
-4.40943e-06
-8.16491e-08
-4.35714e-06
-1.0067e-07
-4.29549e-06
-1.19718e-07
-4.22447e-06
-1.38749e-07
-4.14411e-06
-1.57719e-07
-4.05447e-06
-1.76584e-07
-3.95561e-06
-1.95299e-07
-3.84765e-06
-2.13821e-07
-3.73071e-06
-2.32106e-07
-3.60494e-06
-2.50111e-07
-3.47051e-06
-2.67789e-07
-3.32761e-06
-2.85092e-07
-3.17647e-06
-3.01967e-07
-3.01733e-06
-3.18358e-07
-2.85047e-06
-3.34199e-07
-2.67622e-06
-3.49418e-07
-2.49493e-06
-3.63937e-07
-2.30699e-06
-3.77666e-07
-2.11286e-06
-3.90508e-07
-1.91301e-06
-4.0236e-07
-1.70801e-06
-4.1311e-07
-1.49842e-06
-4.22642e-07
-1.28491e-06
-4.30838e-07
-1.06816e-06
-4.37575e-07
-8.48887e-07
-4.42733e-07
-6.27817e-07
-4.46189e-07
-4.05648e-07
-4.47841e-07
-1.83005e-07
-4.47672e-07
3.9024e-08
-4.45852e-07
2.59123e-07
-4.4234e-07
4.76454e-07
-4.36948e-07
6.90261e-07
-4.29648e-07
8.99714e-07
-4.20498e-07
1.104e-06
-4.09571e-07
1.30233e-06
-3.96948e-07
1.49396e-06
-3.82727e-07
1.67823e-06
-3.67022e-07
1.8545e-06
-3.49962e-07
2.02222e-06
-3.31691e-07
2.18092e-06
-3.12371e-07
2.3302e-06
-2.92174e-07
2.46973e-06
-2.71292e-07
2.5993e-06
-2.49925e-07
2.71875e-06
-2.28285e-07
2.82804e-06
-2.06593e-07
2.92722e-06
-1.8507e-07
3.01644e-06
-1.63938e-07
3.09591e-06
-1.43407e-07
3.16595e-06
-1.23674e-07
3.22695e-06
-1.04913e-07
3.27935e-06
-8.72705e-08
3.32368e-06
-7.08577e-08
3.36048e-06
-5.57508e-08
3.39041e-06
-4.20037e-08
3.41455e-06
-2.97018e-08
3.43431e-06
-1.87641e-08
3.45021e-06
-9.03617e-09
3.46198e-06
-5.96444e-10
3.46968e-06
6.50266e-09
3.47355e-06
1.23627e-08
3.47399e-06
1.70564e-08
3.47144e-06
2.07271e-08
3.46636e-06
2.35143e-08
3.45919e-06
2.55507e-08
3.45036e-06
2.69588e-08
3.44022e-06
2.78477e-08
3.4291e-06
2.83126e-08
3.41729e-06
2.84355e-08
3.40501e-06
2.82862e-08
3.39245e-06
2.79236e-08
3.37978e-06
2.7397e-08
3.36711e-06
2.67477e-08
3.35454e-06
2.601e-08
3.34216e-06
2.52123e-08
3.33001e-06
2.43783e-08
3.31814e-06
2.35274e-08
3.30658e-06
2.26753e-08
3.29535e-06
2.18348e-08
3.28447e-06
2.10157e-08
3.27393e-06
2.02255e-08
3.26373e-06
1.94699e-08
3.25386e-06
1.87525e-08
3.24432e-06
1.80758e-08
3.23509e-06
1.74412e-08
3.22616e-06
1.68488e-08
3.2175e-06
1.62986e-08
3.2091e-06
1.57897e-08
3.20095e-06
1.53208e-08
3.19302e-06
1.48905e-08
3.18529e-06
1.44974e-08
3.17776e-06
1.41396e-08
3.1704e-06
1.38158e-08
3.1632e-06
1.35244e-08
3.15614e-06
1.32643e-08
3.14922e-06
1.30349e-08
3.14241e-06
1.28359e-08
3.1357e-06
1.26657e-08
3.12908e-06
1.25223e-08
3.12254e-06
1.24046e-08
3.11607e-06
1.23116e-08
3.10965e-06
1.22431e-08
3.10328e-06
1.2199e-08
3.09693e-06
1.21799e-08
3.0906e-06
1.21868e-08
3.08428e-06
1.2222e-08
3.07796e-06
1.22882e-08
3.07161e-06
1.23892e-08
3.06522e-06
1.25303e-08
3.05879e-06
1.27186e-08
3.05228e-06
1.29641e-08
3.04568e-06
1.328e-08
3.03894e-06
1.36838e-08
3.03205e-06
1.41992e-08
3.02495e-06
1.48582e-08
3.01758e-06
1.5705e-08
3.00987e-06
1.68006e-08
3.00171e-06
1.82315e-08
2.99299e-06
2.01223e-08
2.9835e-06
2.26573e-08
2.97302e-06
2.61206e-08
2.96118e-06
3.09542e-08
2.9475e-06
3.79288e-08
2.93128e-06
4.82281e-08
2.91125e-06
6.47127e-08
2.8858e-06
9.0268e-08
2.85133e-06
1.41929e-07
2.18506e-07
2.79001e-06
-4.8676e-08
-7.95275e-08
-1.11143e-07
-1.18319e-08
-1.76418e-07
3.79871e-08
-2.46785e-07
8.04036e-08
-3.23423e-07
1.16796e-07
-4.07778e-07
1.48866e-07
-5.00938e-07
1.78067e-07
-6.0328e-07
2.05688e-07
-7.14578e-07
2.32652e-07
-8.34231e-07
2.59404e-07
-9.61393e-07
2.85976e-07
-1.09502e-06
3.1212e-07
-1.2339e-06
3.37432e-07
-1.37668e-06
3.61432e-07
-1.52194e-06
3.83633e-07
-1.66824e-06
4.03582e-07
-1.81423e-06
4.20899e-07
-1.95863e-06
4.35295e-07
-2.10036e-06
4.46591e-07
-2.23855e-06
4.54713e-07
-2.37253e-06
4.59693e-07
-2.50188e-06
4.6165e-07
-2.62635e-06
4.60778e-07
-2.7459e-06
4.57317e-07
-2.8606e-06
4.51539e-07
-2.97063e-06
4.43727e-07
-3.07621e-06
4.34155e-07
-3.17761e-06
4.2308e-07
-3.27506e-06
4.1073e-07
-3.36878e-06
3.97299e-07
-3.45893e-06
3.82945e-07
-3.54564e-06
3.67789e-07
-3.62895e-06
3.51921e-07
-3.70884e-06
3.35399e-07
-3.78526e-06
3.18258e-07
-3.85808e-06
3.00512e-07
-3.92712e-06
2.82159e-07
-3.99218e-06
2.63189e-07
-4.053e-06
2.43586e-07
-4.10932e-06
2.23332e-07
-4.16082e-06
2.02413e-07
-4.20719e-06
1.8082e-07
-4.24811e-06
1.58551e-07
-4.28324e-06
1.35613e-07
-4.31222e-06
1.12023e-07
-4.33469e-06
8.78084e-08
-4.35025e-06
6.30023e-08
-4.35847e-06
3.76415e-08
-4.35884e-06
1.17252e-08
-4.35104e-06
-1.46881e-08
-4.33463e-06
-4.16297e-08
-4.30948e-06
-6.90077e-08
-4.27545e-06
-9.67281e-08
-4.23241e-06
-1.24689e-07
-4.18028e-06
-1.528e-07
-4.11902e-06
-1.80976e-07
-4.04863e-06
-2.09138e-07
-3.96914e-06
-2.37209e-07
-3.88061e-06
-2.65118e-07
-3.78311e-06
-2.92794e-07
-3.67676e-06
-3.20169e-07
-3.56169e-06
-3.47178e-07
-3.43805e-06
-3.73753e-07
-3.30601e-06
-3.99827e-07
-3.16577e-06
-4.25327e-07
-3.01757e-06
-4.50176e-07
-2.86164e-06
-4.74289e-07
-2.69826e-06
-4.9757e-07
-2.52777e-06
-5.19914e-07
-2.3505e-06
-5.41206e-07
-2.16685e-06
-5.61315e-07
-1.97726e-06
-5.80102e-07
-1.7822e-06
-5.97417e-07
-1.58221e-06
-6.13101e-07
-1.37786e-06
-6.26992e-07
-1.16977e-06
-6.38925e-07
-9.58604e-07
-6.48741e-07
-7.45049e-07
-6.56288e-07
-5.29808e-07
-6.6143e-07
-3.13578e-07
-6.64071e-07
-9.70913e-08
-6.64159e-07
1.18668e-07
-6.61611e-07
3.32679e-07
-6.56351e-07
5.44109e-07
-6.48378e-07
7.52164e-07
-6.37703e-07
9.5606e-07
-6.24394e-07
1.15504e-06
-6.08549e-07
1.34838e-06
-5.90291e-07
1.53542e-06
-5.69767e-07
1.71554e-06
-5.47144e-07
1.88819e-06
-5.22613e-07
2.05288e-06
-4.9638e-07
2.20918e-06
-4.68672e-07
2.35674e-06
-4.39729e-07
2.49526e-06
-4.09812e-07
2.62453e-06
-3.79194e-07
2.74441e-06
-3.48163e-07
2.85483e-06
-3.17016e-07
2.95581e-06
-2.86055e-07
3.04746e-06
-2.55582e-07
3.12994e-06
-2.25889e-07
3.20351e-06
-1.97249e-07
3.26851e-06
-1.69909e-07
3.32532e-06
-1.4408e-07
3.3744e-06
-1.19935e-07
3.41625e-06
-9.75993e-08
3.4514e-06
-7.71573e-08
3.48039e-06
-5.86891e-08
3.50383e-06
-4.22078e-08
3.52242e-06
-2.76275e-08
3.53671e-06
-1.48847e-08
3.54713e-06
-3.91689e-09
3.55405e-06
5.43817e-09
3.55787e-06
1.32405e-08
3.55895e-06
1.96456e-08
3.55767e-06
2.48003e-08
3.55436e-06
2.88539e-08
3.54937e-06
3.19513e-08
3.54299e-06
3.42281e-08
3.53549e-06
3.58091e-08
3.52712e-06
3.68069e-08
3.51809e-06
3.73221e-08
3.50857e-06
3.74431e-08
3.49872e-06
3.7247e-08
3.48866e-06
3.68003e-08
3.47851e-06
3.61603e-08
3.46835e-06
3.53753e-08
3.45824e-06
3.44863e-08
3.44824e-06
3.35276e-08
3.43839e-06
3.25276e-08
3.42871e-06
3.15094e-08
3.41924e-06
3.0492e-08
3.40997e-06
2.94904e-08
3.40093e-06
2.85162e-08
3.3921e-06
2.75781e-08
3.38349e-06
2.66828e-08
3.3751e-06
2.58345e-08
3.36691e-06
2.50361e-08
3.35892e-06
2.42891e-08
3.35112e-06
2.35937e-08
3.34349e-06
2.29497e-08
3.33603e-06
2.2356e-08
3.32871e-06
2.18112e-08
3.32154e-06
2.13138e-08
3.31449e-06
2.0862e-08
3.30756e-06
2.04542e-08
3.30074e-06
2.00889e-08
3.29401e-06
1.97649e-08
3.28736e-06
1.94812e-08
3.28079e-06
1.92363e-08
3.27428e-06
1.90282e-08
3.26783e-06
1.88557e-08
3.26143e-06
1.87179e-08
3.25506e-06
1.86143e-08
3.24871e-06
1.8545e-08
3.24238e-06
1.85107e-08
3.23605e-06
1.8513e-08
3.22972e-06
1.85544e-08
3.22337e-06
1.86386e-08
3.21699e-06
1.87706e-08
3.21056e-06
1.89575e-08
3.20407e-06
1.92088e-08
3.1975e-06
1.95377e-08
3.19082e-06
1.99616e-08
3.184e-06
2.05037e-08
3.177e-06
2.11954e-08
3.16978e-06
2.20789e-08
3.16227e-06
2.3212e-08
3.1544e-06
2.4674e-08
3.14605e-06
2.65767e-08
3.1371e-06
2.90791e-08
3.12734e-06
3.24134e-08
3.11653e-06
3.69307e-08
3.10432e-06
4.31669e-08
3.09023e-06
5.20179e-08
3.0736e-06
6.48579e-08
3.05373e-06
8.4583e-08
3.02926e-06
1.14736e-07
3.00329e-06
1.67905e-07
2.48472e-07
2.97332e-06
-9.46374e-08
1.51099e-08
-1.88945e-07
8.24754e-08
-2.83451e-07
1.32494e-07
-3.7865e-07
1.75603e-07
-4.76547e-07
2.14693e-07
-5.78598e-07
2.50918e-07
-6.85603e-07
2.85072e-07
-7.97677e-07
3.17763e-07
-9.14382e-07
3.49356e-07
-1.0349e-06
3.79922e-07
-1.1582e-06
4.09274e-07
-1.28314e-06
4.37059e-07
-1.40855e-06
4.62848e-07
-1.53333e-06
4.86214e-07
-1.65649e-06
5.06785e-07
-1.77718e-06
5.24279e-07
-1.8948e-06
5.38518e-07
-2.00894e-06
5.49433e-07
-2.1194e-06
5.57056e-07
-2.2262e-06
5.61508e-07
-2.32948e-06
5.62978e-07
-2.42953e-06
5.61699e-07
-2.52669e-06
5.57934e-07
-2.62132e-06
5.51952e-07
-2.7138e-06
5.44012e-07
-2.80443e-06
5.34357e-07
-2.89347e-06
5.23197e-07
-2.9811e-06
5.10714e-07
-3.06743e-06
4.97052e-07
-3.15245e-06
4.82322e-07
-3.2361e-06
4.66599e-07
-3.31825e-06
4.49934e-07
-3.39867e-06
4.32348e-07
-3.47712e-06
4.13843e-07
-3.55326e-06
3.94405e-07
-3.62676e-06
3.74007e-07
-3.69722e-06
3.52617e-07
-3.76423e-06
3.30199e-07
-3.82736e-06
3.06718e-07
-3.88617e-06
2.82145e-07
-3.94022e-06
2.56457e-07
-3.98904e-06
2.29643e-07
-4.03219e-06
2.01704e-07
-4.06923e-06
1.72653e-07
-4.09973e-06
1.4252e-07
-4.12327e-06
1.11344e-07
-4.13944e-06
7.91796e-08
-4.14789e-06
4.60891e-08
-4.1483e-06
1.21356e-08
-4.14039e-06
-2.25981e-08
-4.12399e-06
-5.80353e-08
-4.09893e-06
-9.40614e-08
-4.06511e-06
-1.30549e-07
-4.02243e-06
-1.67371e-07
-3.97083e-06
-2.044e-07
-3.91029e-06
-2.41519e-07
-3.84081e-06
-2.78614e-07
-3.76244e-06
-3.15581e-07
-3.67524e-06
-3.52318e-07
-3.5793e-06
-3.88731e-07
-3.47474e-06
-4.2473e-07
-3.36169e-06
-4.60226e-07
-3.24031e-06
-4.95132e-07
-3.11078e-06
-5.29359e-07
-2.9733e-06
-5.62813e-07
-2.82808e-06
-5.95393e-07
-2.67538e-06
-6.26988e-07
-2.51547e-06
-6.57475e-07
-2.34867e-06
-6.86716e-07
-2.17532e-06
-7.14559e-07
-1.9958e-06
-7.40836e-07
-1.81054e-06
-7.65363e-07
-1.62001e-06
-7.87944e-07
-1.42474e-06
-8.08375e-07
-1.22528e-06
-8.26445e-07
-1.02226e-06
-8.41944e-07
-8.16336e-07
-8.54669e-07
-6.0819e-07
-8.64434e-07
-3.98543e-07
-8.71077e-07
-1.88139e-07
-8.74476e-07
2.22033e-08
-8.74501e-07
2.3161e-07
-8.71018e-07
4.39237e-07
-8.63978e-07
6.4425e-07
-8.53391e-07
8.45857e-07
-8.3931e-07
1.0433e-06
-8.21837e-07
1.23586e-06
-8.01111e-07
1.42288e-06
-7.77305e-07
1.60373e-06
-7.5062e-07
1.77787e-06
-7.21283e-07
1.9448e-06
-6.89545e-07
2.1041e-06
-6.55676e-07
2.25539e-06
-6.19964e-07
2.39837e-06
-5.82714e-07
2.53281e-06
-5.44246e-07
2.65851e-06
-5.04895e-07
2.77536e-06
-4.65012e-07
2.8833e-06
-4.24956e-07
2.98234e-06
-3.85095e-07
3.07255e-06
-3.45799e-07
3.15409e-06
-3.07429e-07
3.22717e-06
-2.70328e-07
3.29208e-06
-2.34812e-07
3.34915e-06
-2.01155e-07
3.3988e-06
-1.69587e-07
3.44149e-06
-1.40283e-07
3.4777e-06
-1.13364e-07
3.50792e-06
-8.89156e-08
3.53268e-06
-6.69636e-08
3.5525e-06
-4.7452e-08
3.56791e-06
-3.0295e-08
3.57938e-06
-1.53883e-08
3.5874e-06
-2.57952e-09
3.59237e-06
8.27351e-09
3.59468e-06
1.73384e-08
3.59469e-06