/*--------------------------------*- C++ -*----------------------------------*\
| =========                 |                                                 |
| \\      /  F ield         | OpenFOAM: The Open Source CFD Toolbox           |
|  \\    /   O peration     | Version:  2412                                  |
|   \\  /    A nd           | Website:  www.openfoam.com                      |
|    \\/     M anipulation  |                                                 |
\*---------------------------------------------------------------------------*/
FoamFile
{
    version     2.0;
    format      ascii;
    arch        "LSB;label=32;scalar=64";
    class       volVectorField;
    location    "0.02";
    object      U;
}
// * * * * * * * * * * * * * * * * * * * * * * * * * * * * * * * * * * * * * //

dimensions      [0 1 -1 0 0 0 0];

internalField   nonuniform List<vector> 
12225
(
(0.377619 -0.199751 0)
(0.543909 -0.051582 0)
(0.710681 -0.0338952 0)
(0.893337 -0.0303735 0)
(1.05819 -0.0296468 0)
(1.20766 -0.0283525 0)
(1.34467 -0.0264156 0)
(1.46862 -0.024466 0)
(1.57995 -0.0226431 0)
(1.6799 -0.0209278 0)
(1.7696 -0.0193152 0)
(1.84998 -0.0177949 0)
(1.92178 -0.0163438 0)
(1.98566 -0.0149225 0)
(2.04199 -0.0135271 0)
(2.09173 -0.0120429 0)
(2.13218 -0.0105849 0)
(2.18144 -0.0137603 0)
(0.93336 -0.0313252 0)
(1.05639 -0.0585281 0)
(1.23625 -0.0687779 0)
(1.42095 -0.0643641 0)
(1.58467 -0.0616899 0)
(1.73332 -0.0588344 0)
(1.86994 -0.0554158 0)
(1.99434 -0.0520016 0)
(2.10697 -0.0487176 0)
(2.20883 -0.0455661 0)
(2.30087 -0.042556 0)
(2.38388 -0.0396671 0)
(2.45855 -0.036853 0)
(2.52544 -0.0340397 0)
(2.58494 -0.0312 0)
(2.63743 -0.0280518 0)
(2.68254 -0.0258316 0)
(2.7212 -0.0191523 0)
(1.39952 -0.0847632 0)
(1.49156 -0.105578 0)
(1.65433 -0.107099 0)
(1.82209 -0.101795 0)
(1.97196 -0.0978324 0)
(2.10944 -0.0934764 0)
(2.23658 -0.0885351 0)
(2.35305 -0.0835455 0)
(2.45916 -0.0786734 0)
(2.55567 -0.0739567 0)
(2.64328 -0.0694116 0)
(2.72264 -0.0650089 0)
(2.7943 -0.0606809 0)
(2.85874 -0.0563234 0)
(2.9163 -0.051841 0)
(2.9671 -0.0469674 0)
(3.01102 -0.0421223 0)
(3.04618 -0.0342822 0)
(1.89737 -0.115429 0)
(1.94607 -0.143164 0)
(2.07495 -0.144805 0)
(2.21706 -0.140575 0)
(2.34739 -0.135569 0)
(2.46897 -0.12981 0)
(2.58256 -0.123419 0)
(2.68748 -0.116867 0)
(2.78376 -0.110382 0)
(2.87187 -0.104053 0)
(2.95227 -0.09791 0)
(3.0254 -0.0919189 0)
(3.0917 -0.0859948 0)
(3.15151 -0.0800031 0)
(3.20511 -0.0737831 0)
(3.25247 -0.0670035 0)
(3.29375 -0.0595708 0)
(3.32637 -0.0485419 0)
(2.43106 -0.125774 0)
(2.44039 -0.169712 0)
(2.52861 -0.177196 0)
(2.6397 -0.175936 0)
(2.74635 -0.170972 0)
(2.84843 -0.16444 0)
(2.94541 -0.157036 0)
(3.03607 -0.149255 0)
(3.12007 -0.141414 0)
(3.19754 -0.133672 0)
(3.26868 -0.126083 0)
(3.33373 -0.11862 0)
(3.39297 -0.111191 0)
(3.44661 -0.103637 0)
(3.49485 -0.0957394 0)
(3.53762 -0.0871028 0)
(3.57537 -0.0772848 0)
(3.60528 -0.0637348 0)
(2.99681 -0.123606 0)
(2.97689 -0.185169 0)
(3.02454 -0.201214 0)
(3.10178 -0.204681 0)
(3.18176 -0.201277 0)
(3.26152 -0.194923 0)
(3.33939 -0.187159 0)
(3.41353 -0.178669 0)
(3.48318 -0.169895 0)
(3.54811 -0.161085 0)
(3.60825 -0.152337 0)
(3.66363 -0.143644 0)
(3.71435 -0.134917 0)
(3.76051 -0.125985 0)
(3.80222 -0.116593 0)
(3.83939 -0.106313 0)
(3.87274 -0.0945475 0)
(3.89922 -0.0793012 0)
(3.58831 -0.114421 0)
(3.55083 -0.190367 0)
(3.56309 -0.215624 0)
(3.60661 -0.22502 0)
(3.65851 -0.224681 0)
(3.71413 -0.219593 0)
(3.77103 -0.21225 0)
(3.82689 -0.203679 0)
(3.8805 -0.194489 0)
(3.93131 -0.185042 0)
(3.97896 -0.175501 0)
(4.0233 -0.165894 0)
(4.06424 -0.15615 0)
(4.10175 -0.146102 0)
(4.13589 -0.135485 0)
(4.16654 -0.12388 0)
(4.1946 -0.110679 0)
(4.21674 -0.0944229 0)
(4.19879 -0.101671 0)
(4.15392 -0.186846 0)
(4.1391 -0.220421 0)
(4.15206 -0.235996 0)
(4.17654 -0.239799 0)
(4.2076 -0.23701 0)
(4.24263 -0.230905 0)
(4.27911 -0.222935 0)
(4.31554 -0.213909 0)
(4.35105 -0.20432 0)
(4.38508 -0.194415 0)
(4.41727 -0.184275 0)
(4.44739 -0.173859 0)
(4.4753 -0.163024 0)
(4.50096 -0.151523 0)
(4.52426 -0.138983 0)
(4.54619 -0.124873 0)
(4.56304 -0.108193 0)
(4.82184 -0.0877069 0)
(4.77658 -0.176636 0)
(4.74384 -0.21655 0)
(4.73183 -0.23751 0)
(4.73172 -0.245783 0)
(4.73952 -0.246025 0)
(4.75303 -0.241873 0)
(4.77 -0.235159 0)
(4.78881 -0.226888 0)
(4.80845 -0.217683 0)
(4.8282 -0.207885 0)
(4.84754 -0.197639 0)
(4.86612 -0.186951 0)
(4.88371 -0.175716 0)
(4.90022 -0.163732 0)
(4.91549 -0.150695 0)
(4.93054 -0.136202 0)
(4.94127 -0.11962 0)
(5.45145 -0.0740012 0)
(5.40947 -0.161762 0)
(5.36678 -0.205531 0)
(5.3365 -0.230332 0)
(5.31637 -0.242573 0)
(5.30392 -0.246059 0)
(5.29776 -0.244299 0)
(5.29626 -0.239344 0)
(5.298 -0.232344 0)
(5.30197 -0.224019 0)
(5.3074 -0.214796 0)
(5.31371 -0.204887 0)
(5.32049 -0.194353 0)
(5.32743 -0.183142 0)
(5.3344 -0.171109 0)
(5.34118 -0.158039 0)
(5.34882 -0.143671 0)
(5.35277 -0.12765 0)
(6.08166 -0.0612846 0)
(6.04408 -0.14392 0)
(5.99712 -0.189027 0)
(5.95495 -0.215867 0)
(5.92014 -0.230954 0)
(5.89175 -0.237312 0)
(5.86916 -0.23797 0)
(5.85149 -0.234995 0)
(5.83779 -0.229591 0)
(5.82721 -0.222523 0)
(5.81909 -0.21427 0)
(5.81288 -0.205101 0)
(5.80814 -0.19513 0)
(5.80457 -0.184362 0)
(5.802 -0.172718 0)
(5.8002 -0.16007 0)
(5.8002 -0.146297 0)
(5.797 -0.131244 0)
(6.6546 -0.050487 0)
(6.62054 -0.125944 0)
(6.57305 -0.170292 0)
(6.52484 -0.197491 0)
(6.4813 -0.21397 0)
(6.44262 -0.222228 0)
(6.40865 -0.224741 0)
(6.37915 -0.22345 0)
(6.35363 -0.219545 0)
(6.33157 -0.213775 0)
(6.31245 -0.206628 0)
(6.29584 -0.1984 0)
(6.28139 -0.189244 0)
(6.26881 -0.179209 0)
(6.25796 -0.168274 0)
(6.24857 -0.156386 0)
(6.2417 -0.1435 0)
(6.23196 -0.129712 0)
(7.20973 -0.0405458 0)
(7.18017 -0.107137 0)
(7.13451 -0.149334 0)
(7.08354 -0.175899 0)
(7.03469 -0.192782 0)
(6.98924 -0.202188 0)
(6.94727 -0.206055 0)
(6.90895 -0.206125 0)
(6.87423 -0.203544 0)
(6.84289 -0.19902 0)
(6.81465 -0.193019 0)
(6.78923 -0.185842 0)
(6.76636 -0.177662 0)
(6.74585 -0.168565 0)
(6.72759 -0.158575 0)
(6.71133 -0.147701 0)
(6.69807 -0.135945 0)
(6.68231 -0.123654 0)
(7.81811 -0.0309648 0)
(7.7934 -0.0858852 0)
(7.7518 -0.123606 0)
(7.70101 -0.148127 0)
(7.6496 -0.164245 0)
(7.6001 -0.173947 0)
(7.55285 -0.178633 0)
(7.50821 -0.17972 0)
(7.46649 -0.178261 0)
(7.42777 -0.174915 0)
(7.39198 -0.170108 0)
(7.35901 -0.164121 0)
(7.32874 -0.157136 0)
(7.30108 -0.149259 0)
(7.27598 -0.140554 0)
(7.25325 -0.131072 0)
(7.23382 -0.120871 0)
(7.21227 -0.110417 0)
(8.45855 -0.0222057 0)
(8.43897 -0.063554 0)
(8.40354 -0.0940739 0)
(8.35634 -0.114598 0)
(8.3058 -0.128373 0)
(8.25556 -0.137113 0)
(8.20635 -0.14176 0)
(8.15867 -0.143288 0)
(8.1131 -0.142548 0)
(8.06995 -0.140113 0)
(8.02936 -0.136354 0)
(7.99135 -0.131523 0)
(7.95594 -0.125797 0)
(7.92313 -0.119296 0)
(7.89293 -0.112107 0)
(7.86521 -0.104312 0)
(7.84085 -0.095999 0)
(7.81479 -0.0876777 0)
(9.08866 -0.014303 0)
(9.07388 -0.0415749 0)
(9.04576 -0.0627663 0)
(9.00528 -0.0772765 0)
(8.95951 -0.0869087 0)
(8.91255 -0.093006 0)
(8.86548 -0.0962369 0)
(8.81887 -0.0971895 0)
(8.77342 -0.0964354 0)
(8.72968 -0.0943995 0)
(8.68798 -0.0913579 0)
(8.64846 -0.0875009 0)
(8.61124 -0.0829724 0)
(8.57638 -0.0778856 0)
(8.54398 -0.0723332 0)
(8.51394 -0.0664103 0)
(8.48704 -0.0601957 0)
(8.45898 -0.0542297 0)
(9.63296 -0.00703306 0)
(9.62176 -0.0206162 0)
(9.60004 -0.0314517 0)
(9.56693 -0.0386786 0)
(9.52804 -0.0430171 0)
(9.48734 -0.0452751 0)
(9.44605 -0.0458841 0)
(9.40462 -0.0451656 0)
(9.36366 -0.0434465 0)
(9.32378 -0.0409964 0)
(9.28535 -0.0379993 0)
(9.2486 -0.0345841 0)
(9.2137 -0.0308538 0)
(9.18074 -0.0268992 0)
(9.14986 -0.0228026 0)
(9.121 -0.0186614 0)
(9.09476 -0.0145115 0)
(9.06818 -0.0108794 0)
(9.96405 0.000118698 0)
(9.95464 0.000176114 0)
(9.93662 0.000425118 0)
(9.90839 0.00134566 0)
(9.87468 0.00288733 0)
(9.83929 0.00487693 0)
(9.80349 0.00722279 0)
(9.76767 0.00986305 0)
(9.73229 0.0127208 0)
(9.69785 0.0157197 0)
(9.66471 0.0187981 0)
(9.63304 0.0219033 0)
(9.60293 0.0249822 0)
(9.57445 0.027976 0)
(9.54765 0.0308242 0)
(9.52251 0.0334377 0)
(9.4992 0.0358148 0)
(9.47676 0.0375041 0)
(9.87499 0.00746291 0)
(9.8669 0.0217485 0)
(9.84993 0.0339064 0)
(9.82261 0.0437241 0)
(9.78978 0.051658 0)
(9.75527 0.0582028 0)
(9.72036 0.0636625 0)
(9.68544 0.0682551 0)
(9.65098 0.0721777 0)
(9.6175 0.0755862 0)
(9.58531 0.0785823 0)
(9.55459 0.0812243 0)
(9.52539 0.0835418 0)
(9.49775 0.0855412 0)
(9.47165 0.0872141 0)
(9.44712 0.088524 0)
(9.42386 0.0894899 0)
(9.40296 0.0898015 0)
(9.28436 0.0159057 0)
(9.27064 0.0461293 0)
(9.24575 0.0708575 0)
(9.20973 0.0897012 0)
(9.16882 0.104046 0)
(9.12701 0.115105 0)
(9.08539 0.123562 0)
(9.04437 0.12996 0)
(9.00448 0.134809 0)
(8.96623 0.138509 0)
(8.92988 0.141329 0)
(8.89553 0.14345 0)
(8.86317 0.144998 0)
(8.83279 0.146059 0)
(8.8043 0.146692 0)
(8.77769 0.146929 0)
(8.75247 0.14681 0)
(8.73063 0.146168 0)
(8.47101 0.0260886 0)
(8.45234 0.0737631 0)
(8.41963 0.110082 0)
(8.37609 0.136287 0)
(8.32966 0.155519 0)
(8.28404 0.169634 0)
(8.23994 0.179666 0)
(8.19769 0.186575 0)
(8.15776 0.191215 0)
(8.12044 0.194206 0)
(8.08577 0.195968 0)
(8.05369 0.196796 0)
(8.02408 0.196908 0)
(7.9968 0.196463 0)
(7.97168 0.195572 0)
(7.9486 0.194319 0)
(7.92706 0.192751 0)
(7.90905 0.190803 0)
(7.51239 0.0385348 0)
(7.48658 0.104489 0)
(7.44637 0.150035 0)
(7.39935 0.180892 0)
(7.35357 0.202523 0)
(7.31119 0.217232 0)
(7.27219 0.226549 0)
(7.23665 0.232012 0)
(7.20468 0.23483 0)
(7.17617 0.235797 0)
(7.15084 0.235445 0)
(7.1284 0.234158 0)
(7.10857 0.232209 0)
(7.09105 0.229789 0)
(7.07558 0.227033 0)
(7.06196 0.224036 0)
(7.04967 0.220849 0)
(7.04043 0.21748 0)
(6.48931 0.0542479 0)
(6.45654 0.136914 0)
(6.41288 0.186828 0)
(6.37044 0.21822 0)
(6.33448 0.238781 0)
(6.30457 0.251097 0)
(6.27998 0.257409 0)
(6.26029 0.259796 0)
(6.24492 0.259642 0)
(6.2332 0.257794 0)
(6.22451 0.254828 0)
(6.21834 0.251147 0)
(6.21424 0.247028 0)
(6.21182 0.242653 0)
(6.21077 0.238144 0)
(6.21084 0.233582 0)
(6.21159 0.229009 0)
(6.2144 0.22447 0)
(5.45712 0.0734199 0)
(5.41828 0.166523 0)
(5.37861 0.214057 0)
(5.35257 0.241729 0)
(5.33822 0.257912 0)
(5.33176 0.265412 0)
(5.33163 0.267281 0)
(5.33655 0.265846 0)
(5.34514 0.262421 0)
(5.3563 0.257784 0)
(5.36927 0.252462 0)
(5.38346 0.246802 0)
(5.39841 0.241023 0)
(5.41378 0.235258 0)
(5.4293 0.229586 0)
(5.4448 0.224053 0)
(5.45994 0.218679 0)
(5.47587 0.213521 0)
(4.45283 0.0948104 0)
(4.41205 0.187459 0)
(4.39042 0.225929 0)
(4.39642 0.246285 0)
(4.41611 0.255658 0)
(4.44272 0.257365 0)
(4.47429 0.25488 0)
(4.50895 0.250216 0)
(4.54498 0.244351 0)
(4.58134 0.237878 0)
(4.61739 0.231187 0)
(4.65271 0.224518 0)
(4.68701 0.218005 0)
(4.72012 0.211719 0)
(4.75191 0.205694 0)
(4.78235 0.19994 0)
(4.81127 0.194457 0)
(4.83962 0.189306 0)
(3.50293 0.114491 0)
(3.473 0.192977 0)
(3.48909 0.217681 0)
(3.54106 0.228855 0)
(3.60232 0.23132 0)
(3.66599 0.228541 0)
(3.73098 0.223358 0)
(3.79556 0.217039 0)
(3.85832 0.210186 0)
(3.91862 0.203193 0)
(3.97618 0.196312 0)
(4.03087 0.189679 0)
(4.08267 0.183361 0)
(4.13161 0.177381 0)
(4.17779 0.17174 0)
(4.22132 0.166424 0)
(4.26223 0.161419 0)
(4.30132 0.156795 0)
(2.62982 0.123072 0)
(2.63206 0.176464 0)
(2.70177 0.188027 0)
(2.80465 0.191103 0)
(2.90719 0.189053 0)
(3.00573 0.18443 0)
(3.10105 0.178629 0)
(3.19216 0.172295 0)
(3.27821 0.165827 0)
(3.35906 0.159477 0)
(3.43486 0.15339 0)
(3.5058 0.147635 0)
(3.57212 0.142235 0)
(3.63412 0.137186 0)
(3.69206 0.132471 0)
(3.74624 0.128066 0)
(3.79682 0.123946 0)
(3.84457 0.120207 0)
(1.85171 0.105043 0)
(1.90633 0.13456 0)
(2.03038 0.141965 0)
(2.17821 0.140551 0)
(2.31589 0.137024 0)
(2.44332 0.13284 0)
(2.56337 0.127937 0)
(2.67591 0.122726 0)
(2.78059 0.117564 0)
(2.87771 0.112604 0)
(2.96778 0.107918 0)
(3.05133 0.103538 0)
(3.12884 0.0994687 0)
(3.20079 0.0956942 0)
(3.26765 0.092192 0)
(3.32985 0.0889374 0)
(3.38768 0.0858943 0)
(3.4419 0.0831717 0)
(1.17519 0.0412863 0)
(1.28224 0.0660077 0)
(1.43879 0.0889901 0)
(1.6168 0.0891741 0)
(1.78055 0.0862041 0)
(1.92929 0.0832695 0)
(2.06741 0.0797257 0)
(2.19559 0.0759547 0)
(2.31373 0.0723013 0)
(2.42241 0.0688489 0)
(2.52248 0.0656216 0)
(2.61474 0.0626339 0)
(2.69987 0.0598815 0)
(2.77852 0.0573469 0)
(2.85129 0.0550088 0)
(2.91873 0.0528495 0)
(2.98124 0.0508071 0)
(3.03953 0.0489869 0)
(0.469946 0.225297 0)
(0.642676 0.068719 0)
(0.789222 0.0479151 0)
(0.97281 0.0443283 0)
(1.14952 0.0428813 0)
(1.30954 0.0415756 0)
(1.45717 0.0395253 0)
(1.59336 0.0371895 0)
(1.71793 0.0349479 0)
(1.83161 0.0328724 0)
(1.93557 0.0309582 0)
(2.03082 0.0292027 0)
(2.11824 0.0275992 0)
(2.19859 0.0261343 0)
(2.27258 0.0247918 0)
(2.34083 0.0235644 0)
(2.40384 0.0223992 0)
(2.46192 0.0213778 0)
(0.0501955 -0.143087 -2.92772e-20)
(0.12728 -0.153064 2.74877e-20)
(0.184169 -0.108914 0)
(0.219135 -0.061223 0)
(0.229752 -0.0248097 0)
(0.221894 -0.00322332 -2.59197e-20)
(0.205019 0.0071038 0)
(0.181765 0.0123855 0)
(0.152581 0.0168222 0)
(0.117281 0.0220257 0)
(0.0752303 0.0282745 2.72913e-20)
(0.0257077 0.0354375 0)
(-0.0320497 0.0434308 0)
(-0.0987097 0.0522431 0)
(-0.174781 0.0618593 0)
(-0.260623 0.0722194 2.54275e-20)
(-0.35642 0.0831849 0)
(-0.462156 0.0945412 0)
(-0.577596 0.106011 0)
(-0.702278 0.117278 0)
(-0.835519 0.128017 0)
(-0.976447 0.137921 0)
(-1.12403 0.146727 0)
(-1.27713 0.154228 2.13355e-20)
(-1.43452 0.160281 -2.10502e-20)
(-1.59496 0.16481 2.08161e-20)
(-1.75724 0.167798 2.06294e-20)
(-1.92015 0.169279 0)
(-2.08258 0.169323 0)
(-2.24351 0.16803 -2.03038e-20)
(-2.40197 0.165512 -2.02557e-20)
(-2.55713 0.161889 0)
(-2.70822 0.157275 0)
(-2.85457 0.15178 -2.02177e-20)
(-2.99556 0.1455 0)
(-3.13065 0.138519 0)
(-3.25934 0.130906 2.0239e-20)
(-3.38116 0.122719 0)
(-3.49569 0.114004 2.02301e-20)
(-3.60252 0.104803 4.04155e-20)
(-3.70123 0.0951525 0)
(-3.79145 0.0850895 0)
(-3.87277 0.0746585 0)
(-3.94482 0.0639158 0)
(-4.0072 0.0529367 0)
(-4.05958 0.0418362 3.92507e-20)
(-4.10159 0.0307787 3.8856e-20)
(-4.13298 0.0199776 3.83909e-20)
(-4.15337 0.00978462 0)
(-4.16242 0.000425971 -3.72083e-20)
(-4.16114 -0.00807688 0)
(-4.15101 -0.0157957 3.55579e-20)
(-4.13182 -0.0231724 3.45735e-20)
(-4.1037 -0.0303994 0)
(-4.0667 -0.0375513 0)
(-4.02081 -0.0446558 0)
(-3.96605 -0.0517202 2.94858e-20)
(-3.90241 -0.0587427 0)
(-3.82991 -0.0657177 0)
(-3.7486 -0.0726383 0)
(-3.65851 -0.0794968 0)
(-3.55974 -0.0862856 0)
(-3.45237 -0.0929965 0)
(-3.3365 -0.0996205 0)
(-3.21229 -0.106148 0)
(-3.07987 -0.112566 -1.07879e-20)
(-2.93944 -0.118862 0)
(-2.7912 -0.125019 0)
(-2.63539 -0.131015 2.22777e-21)
(-2.47231 -0.136826 -8.86204e-22)
(-2.30226 -0.142424 0)
(-2.12561 -0.147773 7.50211e-21)
(-1.94278 -0.152831 -1.10023e-20)
(-1.75424 -0.157548 0)
(-1.56053 -0.161862 1.83817e-20)
(-1.36225 -0.165693 0)
(-1.16008 -0.168939 0)
(-0.954771 -0.171458 -3.0377e-20)
(-0.7472 -0.173048 0)
(-0.538344 -0.173425 3.89779e-20)
(-0.329238 -0.172207 0)
(-0.120688 -0.168999 -4.69815e-20)
(0.0869141 -0.164012 -4.81854e-20)
(0.293083 -0.158106 -4.80827e-20)
(0.496744 -0.151743 -9.55597e-20)
(0.696769 -0.145014 9.46245e-20)
(0.892214 -0.137962 0)
(1.08219 -0.130624 0)
(1.26585 -0.123034 0)
(1.44241 -0.11523 8.86873e-20)
(1.61112 -0.107254 8.68805e-20)
(1.7713 -0.0991562 -8.5019e-20)
(1.92237 -0.0909874 0)
(2.06379 -0.0828047 8.12461e-20)
(2.19515 -0.0746687 7.93822e-20)
(2.31612 -0.0666428 7.75588e-20)
(2.4265 -0.0587925 0)
(2.52618 -0.0511842 0)
(2.6152 -0.043884 0)
(2.69369 -0.0369552 7.0917e-20)
(2.76193 -0.0304567 0)
(2.82031 -0.0244399 0)
(2.86929 -0.018946 -6.67901e-20)
(2.90946 -0.0140044 0)
(2.94146 -0.00962086 0)
(2.96596 -0.005792 -6.34103e-20)
(2.98363 -0.00249679 0)
(2.99539 0.00063506 0)
(3.00063 0.00384606 6.0695e-20)
(2.99961 0.00670156 5.99004e-20)
(2.99389 0.00879511 0)
(2.98475 0.0100562 -5.84931e-20)
(2.97322 0.010633 0)
(2.96016 0.0107068 5.72746e-20)
(2.94621 0.0104362 0)
(2.93183 0.00994877 5.62002e-20)
(2.91737 0.00933928 5.57072e-20)
(2.90307 0.0086746 0)
(2.8891 0.00799949 0)
(2.87558 0.00734195 0)
(2.86259 0.00671772 0)
(2.85018 0.00613415 0)
(2.83837 0.0055932 0)
(2.82719 0.00509375 0)
(2.81664 0.00463332 5.25094e-20)
(2.80672 0.00420917 -5.21783e-20)
(2.7974 0.00381896 0)
(2.78869 0.00346083 0)
(2.78055 0.00313334 0)
(2.77297 0.00283517 0)
(2.7659 0.00256493 -1.01344e-19)
(2.75934 0.00232099 0)
(2.75323 0.00210151 1.0025e-19)
(2.74756 0.00190443 -9.97224e-20)
(2.7423 0.00172766 0)
(2.73741 0.00156913 0)
(2.73287 0.0014269 0)
(2.72866 0.00129921 9.77153e-20)
(2.72474 0.00118449 9.72358e-20)
(2.72111 0.00108139 0)
(2.71772 0.000988702 9.62991e-20)
(2.71458 0.000905404 9.58408e-20)
(2.71165 0.000830593 -9.53885e-20)
(2.70891 0.000763483 0)
(2.70636 0.000703391 0)
(2.70397 0.000649746 -9.40645e-20)
(2.70173 0.000602144 0)
(2.69962 0.00056061 0)
(2.69764 0.000525576 0)
(2.69575 0.000497063 0)
(2.69394 0.000474044 9.19476e-20)
(2.69221 0.000455695 9.15352e-20)
(2.69054 0.000441865 0)
(2.68892 0.000432267 9.07211e-20)
(2.68734 0.000426767 0)
(2.68578 0.000425543 0)
(2.68423 0.000428966 8.95261e-20)
(2.68268 0.000437681 0)
(2.68111 0.000452482 8.87481e-20)
(2.67949 0.000474154 0)
(2.67781 0.000503775 0)
(2.67603 0.000543063 8.76144e-20)
(2.67413 0.000594421 0)
(2.67206 0.000660875 8.68877e-20)
(2.66976 0.000746261 0)
(2.66717 0.000855773 0)
(2.6642 0.000996617 0)
(2.66073 0.00117873 -8.5549e-20)
(2.6566 0.00141582 0)
(2.6516 0.00172732 8.4979e-20)
(2.64544 0.00214155 0)
(2.63771 0.00270114 0)
(2.62783 0.00347216 0)
(2.61491 0.00456141 0)
(2.59765 0.00615148 0)
(2.57369 0.00854897 0)
(2.54015 0.0124622 0)
(2.48743 0.0185165 -1.71057e-19)
(2.4182 0.0321423 0)
(2.24544 0.0445786 0)
(0.0148455 -0.255046 8.37565e-20)
(0.0281273 -0.17457 -7.5136e-20)
(0.0123767 -0.0934476 0)
(-0.0123635 -0.0299601 4.28182e-20)
(-0.0452786 0.0188147 0)
(-0.0859679 0.0548445 1.99251e-20)
(-0.136408 0.0819941 -3.84267e-20)
(-0.196883 0.1049 -3.74758e-20)
(-0.267498 0.126843 0)
(-0.348216 0.149468 -3.57283e-20)
(-0.439 0.173321 -1.7675e-20)
(-0.539742 0.198365 0)
(-0.650176 0.224291 0)
(-0.76986 0.250656 0)
(-0.898161 0.276926 0)
(-1.03422 0.302507 -1.57629e-20)
(-1.17696 0.326778 0)
(-1.32509 0.349135 3.00677e-20)
(-1.47723 0.369032 0)
(-1.6319 0.386012 0)
(-1.78766 0.399739 -2.89931e-20)
(-1.94309 0.410006 0)
(-2.09691 0.416742 2.86833e-20)
(-2.24794 0.419994 -1.42885e-20)
(-2.3952 0.419919 1.42813e-20)
(-2.53784 0.416754 -1.4307e-20)
(-2.67523 0.410793 -1.43615e-20)
(-2.80684 0.402362 0)
(-2.93235 0.391798 0)
(-3.0515 0.379428 1.46536e-20)
(-3.16418 0.365561 -1.49843e-20)
(-3.27033 0.35047 0)
(-3.36995 0.334392 0)
(-3.46307 0.317526 1.51719e-20)
(-3.54977 0.300033 0)
(-3.63011 0.282037 0)
(-3.70416 0.263633 -1.55098e-20)
(-3.77199 0.244886 0)
(-3.83366 0.225844 1.58755e-20)
(-3.88922 0.206537 -3.13969e-20)
(-3.93871 0.186982 0)
(-3.98217 0.167192 0)
(-4.01966 0.147175 -6.31724e-20)
(-4.05121 0.126943 -6.29142e-20)
(-4.07689 0.106512 -6.25258e-20)
(-4.0968 0.0859219 3.1315e-20)
(-4.11105 0.0652518 -3.03319e-20)
(-4.11975 0.0446425 -9.04152e-20)
(-4.12311 0.0243452 5.95345e-20)
(-4.12126 0.00460787 2.87817e-20)
(-4.11321 -0.0145253 0)
(-4.09728 -0.0330886 -2.72432e-20)
(-4.07331 -0.0512698 2.72399e-20)
(-4.04104 -0.0691744 0)
(-4.00027 -0.0868371 0)
(-3.95094 -0.104256 0)
(-3.893 -0.12141 -2.19498e-20)
(-3.82644 -0.138272 0)
(-3.75129 -0.154811 3.9817e-20)
(-3.66758 -0.170995 0)
(-3.57539 -0.186793 3.39584e-20)
(-3.47479 -0.202175 0)
(-3.3659 -0.217112 -2.75091e-20)
(-3.24884 -0.231573 0)
(-3.12375 -0.245526 2.05089e-20)
(-2.99082 -0.258938 -9.32273e-21)
(-2.85022 -0.27177 0)
(-2.7022 -0.28398 -9.08436e-21)
(-2.54701 -0.295521 -1.50381e-21)
(-2.38493 -0.306338 5.92109e-22)
(-2.2163 -0.316375 0)
(-2.04148 -0.325565 2.65459e-21)
(-1.86089 -0.333841 7.11446e-21)
(-1.675 -0.341129 0)
(-1.48431 -0.347354 -1.16132e-20)
(-1.28938 -0.352439 2.5341e-20)
(-1.09082 -0.356303 0)
(-0.889266 -0.358865 1.85139e-20)
(-0.685384 -0.360029 0)
(-0.479838 -0.359684 -6.71163e-20)
(-0.273269 -0.357674 0)
(-0.0664118 -0.353773 8.00574e-20)
(0.139642 -0.347888 2.85832e-20)
(0.343873 -0.340325 -2.7127e-20)
(0.545506 -0.331352 -5.57379e-20)
(0.743811 -0.321108 5.69725e-20)
(0.938014 -0.309691 0)
(1.12735 -0.297195 0)
(1.31111 -0.283719 0)
(1.4886 -0.269371 -1.8514e-19)
(1.6592 -0.254268 -6.26965e-20)
(1.82234 -0.238539 6.26287e-20)
(1.97753 -0.22232 0)
(2.12432 -0.205756 6.03679e-20)
(2.26236 -0.188999 -6.1886e-20)
(2.39136 -0.172206 -6.15076e-20)
(2.51114 -0.155536 0)
(2.62157 -0.139148 0)
(2.72264 -0.123195 0)
(2.8144 -0.107824 -5.96276e-20)
(2.897 -0.0931683 0)
(2.97069 -0.079343 1.16519e-19)
(3.03577 -0.0664442 1.73544e-19)
(3.0926 -0.0545439 -1.14501e-19)
(3.14163 -0.043682 0)
(3.18336 -0.0338693 -5.60496e-20)
(3.21835 -0.0250815 0)
(3.24704 -0.0171037 -1.10373e-19)
(3.27119 -0.00982498 5.45436e-20)
(3.29184 -0.00354767 5.40278e-20)
(3.30866 0.00153122 0)
(3.32152 0.00547143 1.59297e-19)
(3.33063 0.00842374 -1.0512e-19)
(3.33628 0.0105504 -5.21215e-20)
(3.33888 0.0120091 0)
(3.33886 0.0129372 -5.11931e-20)
(3.33665 0.0134486 -1.52233e-19)
(3.33267 0.0136366 0)
(3.32728 0.0135766 -9.99004e-20)
(3.32082 0.0133291 -9.91716e-20)
(3.31357 0.0129424 -9.84759e-20)
(3.30578 0.0124545 0)
(3.29766 0.0118957 0)
(3.28936 0.01129 0)
(3.28102 0.0106566 4.79811e-20)
(3.27276 0.0100108 4.77087e-20)
(3.26465 0.00936481 0)
(3.25676 0.0087284 9.43312e-20)
(3.24913 0.00810905 9.38182e-20)
(3.24181 0.00751238 0)
(3.23483 0.00694237 9.28382e-20)
(3.22818 0.00640163 1.84725e-19)
(3.2219 0.00589168 -9.19034e-20)
(3.21596 0.0054131 -9.14491e-20)
(3.21038 0.00496586 0)
(3.20515 0.00454939 0)
(3.20024 0.00416278 0)
(3.19566 0.00380488 -8.97337e-20)
(3.19138 0.00347438 8.93215e-20)
(3.18739 0.00316988 1.77834e-19)
(3.18367 0.00288991 -8.85177e-20)
(3.18021 0.00263303 8.81227e-20)
(3.177 0.00239782 8.77338e-20)
(3.174 0.00218289 0)
(3.17122 0.00198698 0)
(3.16863 0.00180895 -8.65901e-20)
(3.16621 0.00164789 0)
(3.16397 0.00150347 0)
(3.16188 0.00137542 1.7096e-19)
(3.15993 0.00126238 0)
(3.15811 0.00116284 8.47539e-20)
(3.15641 0.00107595 -8.43973e-20)
(3.15481 0.00100112 0)
(3.15331 0.000937875 8.3685e-20)
(3.15189 0.000885965 0)
(3.15054 0.000845512 0)
(3.14926 0.000816966 -8.26417e-20)
(3.14802 0.000801135 1.64594e-19)
(3.14682 0.000799161 -8.1958e-20)
(3.14564 0.000812549 0)
(3.14447 0.000843459 0)
(3.14329 0.000895021 8.0952e-20)
(3.14209 0.000971484 0)
(3.14084 0.00107842 8.03045e-20)
(3.13952 0.00122323 0)
(3.13808 0.00141588 0)
(3.13649 0.00167 0)
(3.1347 0.00200424 7.91045e-20)
(3.13263 0.00244443 0)
(3.1302 0.00302705 -7.85749e-20)
(3.12728 0.00380504 0)
(3.1237 0.00485701 0)
(3.11925 0.00630458 1.55887e-19)
(3.11361 0.00833886 -1.55631e-19)
(3.10638 0.0112939 0)
(3.09672 0.0156908 0)
(3.08444 0.0227979 0)
(3.06546 0.0337511 4.69261e-19)
(3.04652 0.0567422 0)
(2.99936 0.0860016 -3.16232e-19)
(-0.0362975 -0.208803 -1.19849e-21)
(-0.0720448 -0.0938842 8.98292e-20)
(-0.126127 -0.00171885 0)
(-0.185786 0.0728203 -6.86551e-20)
(-0.251168 0.134153 0)
(-0.322703 0.185536 0)
(-0.401649 0.230228 3.78907e-22)
(-0.488741 0.271242 2.90958e-20)
(-0.584058 0.310803 2.80115e-20)
(-0.687226 0.350082 2.7656e-20)
(-0.7976 0.389375 0)
(-0.914345 0.428409 0)
(-1.03645 0.466587 -2.57022e-20)
(-1.16278 0.503138 -5.05141e-20)
(-1.29209 0.537236 4.97362e-20)
(-1.4231 0.56809 0)
(-1.55454 0.595001 4.85341e-20)
(-1.68523 0.617409 -2.39166e-20)
(-1.81411 0.634918 0)
(-1.94029 0.647318 4.76168e-20)
(-2.06309 0.654576 2.34642e-20)
(-2.18202 0.656829 -4.75402e-20)
(-2.29677 0.654353 -2.34494e-20)
(-2.40723 0.647534 0)
(-2.5134 0.636834 4.80459e-20)
(-2.6154 0.622753 4.83368e-20)
(-2.71343 0.605798 0)
(-2.80769 0.586462 4.90369e-20)
(-2.89842 0.565195 0)
(-2.98582 0.5424 4.98265e-20)
(-3.07006 0.518417 2.47665e-20)
(-3.15126 0.493527 0)
(-3.2295 0.467951 0)
(-3.30479 0.441856 0)
(-3.37709 0.415362 0)
(-3.4463 0.38855 0)
(-3.51229 0.361471 0)
(-3.57488 0.334155 5.24331e-20)
(-3.63386 0.306619 -7.85787e-20)
(-3.68897 0.278873 0)
(-3.73995 0.250928 0)
(-3.78652 0.222796 0)
(-3.82838 0.1945 -5.7216e-22)
(-3.86521 0.166069 5.14671e-20)
(-3.89669 0.137542 1.02758e-19)
(-3.9225 0.108957 -1.01777e-19)
(-3.94228 0.0803454 -5.06312e-20)
(-3.95562 0.0517171 4.92124e-20)
(-3.9621 0.0230286 7.68408e-22)
(-3.96132 -0.00578244 4.80548e-20)
(-3.9529 -0.0347339 0)
(-3.93657 -0.063781 4.55103e-20)
(-3.9122 -0.0927599 9.33484e-22)
(-3.87966 -0.121538 0)
(-3.83883 -0.15002 0)
(-3.78964 -0.178127 -3.89029e-20)
(-3.73206 -0.205787 0)
(-3.66608 -0.232931 0)
(-3.59173 -0.259497 3.38051e-20)
(-3.50905 -0.285425 6.06841e-20)
(-3.41811 -0.310658 -2.66983e-20)
(-3.319 -0.335142 0)
(-3.21183 -0.358827 2.14815e-20)
(-3.09674 -0.381658 0)
(-2.97387 -0.403581 1.8634e-20)
(-2.8434 -0.424539 1.29892e-20)
(-2.70553 -0.444468 -2.28854e-20)
(-2.56049 -0.463299 -9.89793e-21)
(-2.40853 -0.480953 0)
(-2.24993 -0.497346 4.48077e-21)
(-2.08504 -0.512383 0)
(-1.9142 -0.525965 -1.39362e-20)
(-1.73783 -0.537985 -1.4687e-20)
(-1.55638 -0.548332 -2.11796e-20)
(-1.37035 -0.556897 2.77035e-20)
(-1.18027 -0.563572 -5.30252e-20)
(-0.986733 -0.568258 0)
(-0.790347 -0.570869 0)
(-0.591751 -0.571334 5.39743e-20)
(-0.391596 -0.569616 9.25525e-20)
(-0.19054 -0.565724 0)
(0.0106613 -0.559689 -3.77902e-20)
(0.211052 -0.551476 0)
(0.409752 -0.541098 1.20595e-19)
(0.606001 -0.528591 2.78077e-21)
(0.799073 -0.514053 -2.6179e-21)
(0.988238 -0.497609 -8.75259e-20)
(1.1728 -0.4794 0)
(1.35209 -0.459582 9.15087e-20)
(1.5255 -0.438326 1.97317e-21)
(1.69248 -0.415815 0)
(1.85251 -0.392243 0)
(2.00515 -0.367817 0)
(2.15001 -0.342748 -9.91252e-20)
(2.28677 -0.317259 0)
(2.41517 -0.291579 0)
(2.53503 -0.265939 0)
(2.64622 -0.240573 0)
(2.74869 -0.21571 0)
(2.84249 -0.191573 -1.00444e-19)
(2.9277 -0.168369 0)
(3.00453 -0.146285 -1.01121e-19)
(3.07322 -0.12548 -1.00983e-19)
(3.1341 -0.106083 1.0078e-19)
(3.18754 -0.0881876 0)
(3.23398 -0.0718498 1.00204e-19)
(3.27391 -0.0570914 0)
(3.3078 -0.0439881 9.94357e-20)
(3.33619 -0.0325569 -9.89942e-20)
(3.3597 -0.022644 -2.95129e-19)
(3.37892 -0.0141022 0)
(3.39434 -0.00682507 -2.92058e-19)
(3.4063 -0.00075975 -9.65127e-20)
(3.41513 0.00418275 0)
(3.42121 0.00811544 -1.90874e-19)
(3.42488 0.0111579 -1.89661e-19)
(3.42648 0.0134307 2.82799e-19)
(3.42633 0.0150495 0)
(3.42473 0.016121 9.31501e-20)
(3.42196 0.0167412 9.25809e-20)
(3.41826 0.0169946 2.75968e-19)
(3.41384 0.0169547 0)
(3.40889 0.0166843 0)
(3.40358 0.0162365 0)
(3.39803 0.0156558 8.98851e-20)
(3.39236 0.0149792 0)
(3.38665 0.0142372 0)
(3.38099 0.0134544 -8.85223e-20)
(3.37544 0.0126511 -8.80701e-20)
(3.37002 0.0118436 0)
(3.36479 0.0110446 0)
(3.35977 0.0102641 -1.73546e-19)
(3.35497 0.00950977 0)
(3.35041 0.00878699 1.71903e-19)
(3.34609 0.00809958 1.71091e-19)
(3.342 0.00744992 0)
(3.33816 0.00683919 0)
(3.33454 0.00626768 -1.68779e-19)
(3.33116 0.00573497 -7.21263e-24)
(3.32799 0.00524012 -6.18344e-24)
(3.32503 0.0047818 0)
(3.32226 0.00435845 -3.31695e-19)
(3.31968 0.00396838 0)
(3.31727 0.00360986 0)
(3.31503 0.00328116 0)
(3.31295 0.0029807 1.63044e-19)
(3.311 0.00270706 0)
(3.30919 0.00245914 -3.23355e-19)
(3.3075 0.0022359 -1.61006e-19)
(3.30593 0.00203586 0)
(3.30446 0.0018574 -1.59673e-19)
(3.30308 0.00169928 0)
(3.30179 0.00156057 0)
(3.30058 0.00144061 -4.73113e-19)
(3.29944 0.00133898 3.14112e-19)
(3.29836 0.00125563 0)
(3.29732 0.00119093 3.11549e-19)
(3.29632 0.00114571 -1.55143e-19)
(3.29535 0.00112136 0)
(3.29439 0.00111987 0)
(3.29343 0.00114406 0)
(3.29246 0.00119792 -4.57978e-19)
(3.29146 0.00128695 0)
(3.2904 0.00141857 -1.51467e-19)
(3.28925 0.00160267 0)
(3.28799 0.00185252 0)
(3.28656 0.00218609 0)
(3.2849 0.00262787 0)
(3.28296 0.00321171 0)
(3.28062 0.00398496 0)
(3.27777 0.00501545 -2.95567e-19)
(3.27422 0.0064023 0)
(3.26976 0.00829642 -1.47124e-19)
(3.26405 0.010929 4.40549e-19)
(3.2567 0.0146952 0)
(3.24701 0.0201943 0)
(3.23456 0.0287834 -2.93749e-19)
(3.21741 0.0419797 -2.95372e-19)
(3.19861 0.0664639 2.95574e-19)
(3.1732 0.104148 2.98721e-19)
(-0.0659829 -0.0655355 -1.55328e-19)
(-0.131727 0.0580676 -1.21266e-19)
(-0.209064 0.152165 -6.54588e-20)
(-0.292217 0.231182 -2.85566e-20)
(-0.378322 0.300188 0)
(-0.467344 0.36182 5.14455e-20)
(-0.56042 0.418201 -2.45703e-20)
(-0.658118 0.471074 0)
(-0.760303 0.521602 -2.37414e-20)
(-0.866396 0.570249 0)
(-0.975555 0.616871 4.52903e-20)
(-1.0868 0.660932 0)
(-1.19909 0.701702 2.19053e-20)
(-1.3114 0.738411 4.31533e-20)
(-1.42278 0.770363 -4.25954e-20)
(-1.5324 0.797001 0)
(-1.63961 0.817955 -4.17746e-20)
(-1.74396 0.833056 0)
(-1.84517 0.842331 0)
(-1.94316 0.845985 -4.12385e-20)
(-2.03802 0.844368 0)
(-2.12994 0.837938 -7.78081e-22)
(-2.21921 0.827219 0)
(-2.30616 0.812764 0)
(-2.39111 0.795121 8.01027e-22)
(-2.47438 0.774808 -4.20797e-20)
(-2.55622 0.752295 -4.31628e-20)
(-2.63683 0.727988 -4.27093e-20)
(-2.71634 0.702226 0)
(-2.79479 0.675282 -8.75669e-20)
(-2.87216 0.647364 0)
(-2.94834 0.61862 -4.48538e-20)
(-3.02318 0.589152 0)
(-3.09647 0.559017 0)
(-3.16792 0.528242 4.58508e-20)
(-3.23726 0.496829 0)
(-3.30412 0.464766 -4.64013e-20)
(-3.36816 0.432032 7.19447e-22)
(-3.42897 0.398603 9.28585e-20)
(-3.48617 0.36446 -9.38334e-20)
(-3.53935 0.329592 0)
(-3.58809 0.293999 0)
(-3.63197 0.257695 -4.76987e-20)
(-3.67058 0.220708 0)
(-3.70351 0.183085 -4.56225e-20)
(-3.73038 0.144887 4.52572e-20)
(-3.75079 0.106188 4.47931e-20)
(-3.76438 0.0670727 0)
(-3.77083 0.0276172 -4.35424e-20)
(-3.76986 -0.0121198 -4.25798e-20)
(-3.76125 -0.0520298 8.49723e-20)
(-3.74483 -0.0920086 -4.03087e-20)
(-3.72047 -0.131905 -3.90015e-20)
(-3.68805 -0.171569 0)
(-3.6475 -0.210865 0)
(-3.59875 -0.249669 3.4397e-20)
(-3.54179 -0.287868 0)
(-3.47661 -0.325357 0)
(-3.40324 -0.362042 -5.76278e-20)
(-3.32176 -0.397836 -5.35025e-20)
(-3.23222 -0.43266 0)
(-3.13472 -0.466437 0)
(-3.02939 -0.499095 0)
(-2.91636 -0.530561 0)
(-2.79577 -0.560761 -3.02894e-20)
(-2.66781 -0.589616 2.749e-20)
(-2.53268 -0.617038 2.00201e-20)
(-2.39059 -0.642933 3.17523e-20)
(-2.2418 -0.667194 0)
(-2.0866 -0.689704 2.30395e-21)
(-1.92529 -0.710337 0)
(-1.75824 -0.728953 7.14985e-21)
(-1.58585 -0.745409 2.29365e-21)
(-1.40856 -0.759555 1.83182e-20)
(-1.22686 -0.771241 -2.39157e-20)
(-1.04129 -0.780325 2.25575e-21)
(-0.852412 -0.786674 0)