/*--------------------------------*- C++ -*----------------------------------*\
| =========                 |                                                 |
| \\      /  F ield         | OpenFOAM: The Open Source CFD Toolbox           |
|  \\    /   O peration     | Version:  2412                                  |
|   \\  /    A nd           | Website:  www.openfoam.com                      |
|    \\/     M anipulation  |                                                 |
\*---------------------------------------------------------------------------*/
FoamFile
{
    version     2.0;
    format      ascii;
    arch        "LSB;label=32;scalar=64";
    class       volScalarField;
    location    "9.25";
    object      p;
}
// * * * * * * * * * * * * * * * * * * * * * * * * * * * * * * * * * * * * * //

dimensions      [0 2 -2 0 0 0 0];

internalField   nonuniform List<scalar> 
2200
(
1.14643
1.14663
1.14836
1.15435
1.16907
1.19983
1.25729
1.35577
1.51445
1.75214
2.02283
2.25048
2.40542
2.50348
2.56149
2.59336
2.60867
2.61528
2.61763
2.6179
1.14121
1.14152
1.14341
1.14936
1.16403
1.19545
1.25365
1.35291
1.51234
1.74999
2.01985
2.24756
2.40445
2.50468
2.56226
2.59265
2.60761
2.61356
2.61539
2.61546
1.13145
1.13162
1.13378
1.14019
1.15556
1.18755
1.24656
1.34744
1.50748
1.74738
2.01915
2.25013
2.4098
2.50845
2.56541
2.59545
2.6094
2.6148
2.61632
2.61643
1.11759
1.11777
1.12018
1.12706
1.14303
1.17541
1.23549
1.33786
1.49976
1.7446
2.02202
2.25706
2.41707
2.5165
2.57357
2.60217
2.61521
2.62061
2.62242
2.62271
1.09654
1.09659
1.09916
1.10682
1.12357
1.15676
1.21795
1.32329
1.48989
1.74171
2.02518
2.26527
2.42935
2.52861
2.58473
2.61402
2.62807
2.63407
2.63614
2.63646
1.06651
1.06628
1.06819
1.07477
1.09255
1.12844
1.19282
1.30138
1.47429
1.73624
2.02968
2.27594
2.44127
2.54419
2.60277
2.63355
2.64913
2.65595
2.65835
2.65863
1.03109
1.03131
1.03323
1.03854
1.05355
1.08845
1.15605
1.27023
1.45196
1.72612
2.03103
2.28609
2.45823
2.56502
2.62679
2.66018
2.67707
2.68531
2.68841
2.68861
0.98196
0.982483
0.984895
0.990983
1.00633
1.04115
1.1086
1.22795
1.42055
1.71031
2.03193
2.29984
2.47974
2.59269
2.6592
2.69599
2.71535
2.72456
2.72783
2.72786
0.913047
0.913469
0.916205
0.92348
0.941124
0.977648
1.0496
1.1745
1.37873
1.68853
2.03148
2.31535
2.50798
2.63084
2.70345
2.74352
2.76367
2.77218
2.77537
2.7757
0.826139
0.826084
0.829635
0.839029
0.858932
0.898269
0.974173
1.1088
1.32865
1.66109
2.03125
2.34082
2.55154
2.6838
2.76125
2.80307
2.82262
2.83046
2.83409
2.83501
0.72741
0.726792
0.729995
0.741242
0.765018
0.810544
0.893768
1.0387
1.27515
1.63307
2.03639
2.37764
2.61105
2.75632
2.83943
2.88288
2.90311
2.91111
2.91506
2.91636
0.619397
0.618551
0.622832
0.6358
0.661531
0.710376
0.803373
0.964393
1.22337
1.60964
2.0509
2.43266
2.69407
2.85414
2.94478
2.99219
3.01399
3.02292
3.02686
3.02825
0.498621
0.497942
0.500579
0.514408
0.546316
0.605156
0.708941
0.88651
1.17223
1.5947
2.08343
2.51067
2.80141
2.97912
3.0799
3.13126
3.15475
3.16484
3.16841
3.16951
0.351365
0.351433
0.355988
0.368849
0.402407
0.473276
0.597596
0.799584
1.11809
1.5897
2.13577
2.60851
2.92838
3.12399
3.23294
3.28837
3.31532
3.32724
3.33029
3.3307
0.168886
0.168427
0.172668
0.187077
0.224279
0.300021
0.439845
0.67422
1.04678
1.58766
2.20204
2.71971
3.06495
3.27519
3.39027
3.45127
3.48359
3.49734
3.50025
3.50009
-0.0559296
-0.0550562
-0.0493264
-0.0353263
0.00370833
0.0897702
0.245585
0.51095
0.943618
1.57026
2.26502
2.82784
3.19862
3.42612
3.55279
3.61868
3.65409
3.66983
3.67403
3.67405
-0.343584
-0.343118
-0.335645
-0.318607
-0.277401
-0.184106
-0.00393365
0.30252
0.804233
1.52191
2.30728
2.93243
3.33802
3.58607
3.72803
3.80128
3.83708
3.85447
3.86029
3.86073
-0.689065
-0.689155
-0.68199
-0.660854
-0.612046
-0.508627
-0.310129
0.0406557
0.618637
1.43648
2.3272
3.03409
3.4909
3.76822
3.92742
4.01095
4.04634
4.0631
4.06974
4.07058
-1.10506
-1.10406
-1.09472
-1.06922
-1.00771
-0.883662
-0.656227
-0.260514
0.398143
1.32527
2.33948
3.14833
3.66715
3.98084
4.16007
4.24994
4.28554
4.30133
4.30809
4.30861
-1.59014
-1.58943
-1.57979
-1.55172
-1.48185
-1.33596
-1.06782
-0.601322
0.163007
1.21348
2.36122
3.28496
3.87813
4.22592
4.41863
4.51391
4.55215
4.56693
4.5734
4.57347
-2.18239
-2.18076
-2.16705
-2.12883
-2.04013
-1.86686
-1.54627
-0.983723
-0.0818586
1.12357
2.42314
3.45659
4.10956
4.49212
4.69505
4.79305
4.83695
4.85279
4.8598
4.8592
-2.88457
-2.88354
-2.87238
-2.82994
-2.7202
-2.50015
-2.09506
-1.40248
-0.326995
1.06815
2.53826
3.67675
4.38205
4.77932
4.98369
5.08592
5.13325
5.15135
5.15993
5.15915
-3.77084
-3.76475
-3.73857
-3.68051
-3.54296
-3.25756
-2.73514
-1.86385
-0.572523
1.05001
2.70979
3.94793
4.69424
5.09804
5.29254
5.39044
5.44128
5.46295
5.47432
5.47426
-4.86096
-4.85415
-4.82921
-4.74165
-4.53643
-4.14436
-3.46116
-2.3698
-0.822952
1.06103
2.93816
4.27322
5.04237
5.44205
5.62942
5.72054
5.76958
5.79477
5.81066
5.81104
-6.3045
-6.27553
-6.19891
-6.03517
-5.71301
-5.15769
-4.25804
-2.90382
-1.07481
1.09548
3.20576
4.6464
5.44218
5.83135
6.00561
6.07902
6.10956
6.12492
6.13516
6.13841
-8.10096
-8.03796
-7.86989
-7.55978
-7.05667
-6.27304
-5.10768
-3.44343
-1.30731
1.16806
3.51777
5.0728
5.88927
6.27147
6.42836
6.47216
6.47566
6.47356
6.47237
6.4852
-10.3311
-10.1501
-9.78924
-9.24805
-8.47562
-7.4124
-5.9487
-3.94975
-1.47275
1.34141
3.95482
5.64163
6.50057
6.87955
7.01547
7.0513
7.05058
7.05157
7.04444
7.06017
-12.7985
-12.2989
-11.6734
-10.9207
-9.91935
-8.57
-6.75259
-4.38409
-1.53696
1.65122
4.5634
6.39912
7.32539
7.71756
7.86109
7.92353
7.94192
7.95832
7.95215
7.97324
-15.0679
-14.3542
-13.5378
-12.5671
-11.3056
-9.64337
-7.4681
-4.72855
-1.49907
2.06486
5.26419
7.23761
8.20107
8.61799
8.7917
8.83896
8.87011
8.88482
8.88893
8.90114
-16.8329
-16.0506
-15.1815
-14.0792
-12.5904
-10.6204
-8.08793
-4.96972
-1.36085
2.55768
6.03445
8.13108
9.1085
9.5447
9.71541
9.78052
9.81314
9.83233
9.84241
9.85071
-18.3137
-17.3934
-16.5264
-15.3185
-13.6441
-11.4529
-8.61212
-5.12272
-1.15444
3.07706
6.80206
9.01308
10.007
10.4771
10.6716
10.7407
10.7727
10.7889
10.7963
10.8019
-19.4239
-18.4212
-17.5764
-16.2713
-14.4724
-12.1071
-9.01951
-5.21202
-0.943642
3.55044
7.50099
9.82989
10.9064
11.4056
11.5975
11.669
11.7011
11.7143
11.7221
11.7273
-20.2253
-19.2297
-18.4166
-16.9979
-15.0991
-12.6061
-9.3261
-5.26514
-0.768172
3.9432
8.12483
10.5874
11.7637
12.2852
12.475
12.543
12.5842
12.6066
12.6182
12.6209
-20.8187
-19.8859
-19.0291
-17.5467
-15.5889
-12.998
-9.56495
-5.31157
-0.630818
4.29363
8.68758
11.2934
12.5426
13.0726
13.2789
13.3664
13.4101
13.4337
13.4479
13.4477
-21.2585
-20.3625
-19.4313
-17.9634
-15.9685
-13.2942
-9.75141
-5.35539
-0.506232
4.6292
9.20344
11.9296
13.2292
13.7923
14.0229
14.1215
14.1768
14.2038
14.2172
14.2183
-21.5556
-20.664
-19.7162
-18.2486
-16.2372
-13.5091
-9.88538
-5.38105
-0.379237
4.94415
9.65723
12.4807
13.8363
14.4408
14.7024
14.8174
14.8769
14.9125
14.9338
14.9319
-21.7433
-20.886
-19.8961
-18.4152
-16.4004
-13.6434
-9.96662
-5.37852
-0.258363
5.20342
10.0243
12.9352
14.364
15.0272
15.3215
15.4526
15.5248
15.5606
15.5803
15.5797
-21.8685
-21.041
-19.9933
-18.4859
-16.4618
-13.701
-9.99406
-5.35576
-0.16798
5.37606
10.2921
13.2984
14.8236
15.5546
15.8821
16.028
16.1079
16.1552
16.1838
16.1804
-21.9519
-21.1301
-20.0428
-18.4961
-16.4526
-13.6915
-9.97646
-5.32597
-0.119279
5.46321
10.4727
13.5935
15.223
16.017
16.3853
16.5536
16.6482
16.6995
16.7339
16.728
-22.0078
-21.1885
-20.0695
-18.4835
-16.4056
-13.6358
-9.92947
-5.2936
-0.0981933
5.49717
10.5969
13.8449
15.5753
16.4311
16.833
17.0203
17.1271
17.1899
17.2342
17.2259
-22.0411
-21.2314
-20.0946
-18.4707
-16.3539
-13.5631
-9.86855
-5.25381
-0.0772816
5.52111
10.7001
14.068
15.8847
16.7934
17.2255
17.4359
17.5638
17.64
17.6876
17.6727
-22.0743
-21.2677
-20.1172
-18.4712
-16.3193
-13.4976
-9.80225
-5.19937
-0.0352105
5.56526
10.8023
14.2618
16.1467
17.1074
17.5763
17.8103
17.9591
18.0329
18.082
18.0674
-22.1116
-21.3035
-20.1461
-18.4888
-16.3109
-13.4541
-9.74015
-5.13407
0.0290177
5.63433
10.9041
14.4185
16.3558
17.3672
17.8809
18.1459
18.3093
18.387
18.4191
18.4132
-22.1533
-21.3435
-20.1829
-18.5267
-16.3316
-13.4434
-9.69914
-5.07661
0.0954966
5.71004
10.9942
14.5343
16.5072
17.5702
18.1398
18.4522
18.6535
18.7176
18.7009
18.7166
-22.1992
-21.3949
-20.2355
-18.5835
-16.3826
-13.4782
-9.70444
-5.05892
0.130794
5.76218
11.0569
14.6064
16.6014
17.7154
18.3493
18.7389
18.9861
19.0959
19.0128
19.0125
-22.2569
-21.46
-20.3024
-18.6621
-16.474
-13.5763
-9.7873
-5.1185
0.0986838
5.76018
11.0753
14.6335
16.6412
17.803
18.5042
18.9856
19.3399
19.5669
19.4836
19.2708
-22.3277
-21.5384
-20.3839
-18.7585
-16.6037
-13.7351
-9.94978
-5.26067
-0.0083503
5.69295
11.0367
14.6084
16.6262
17.8308
18.5968
19.1661
19.6669
20.1392
20.2304
20.0408
-22.4129
-21.6256
-20.4767
-18.869
-16.7591
-13.9318
-10.166
-5.46132
-0.175046
5.56066
10.9269
14.5109
16.5359
17.7807
18.6002
19.2387
19.7993
20.2053
20.2029
20.0742
-22.5126
-21.7172
-20.5869
-18.992
-16.9282
-14.1436
-10.4043
-5.6879
-0.37467
5.38202
10.7517
14.3361
16.3612
17.6318
18.4599
19.0797
19.5747
19.8752
19.7803
19.6337
-22.6156
-21.8256
-20.7134
-19.1385
-17.1126
-14.3634
-10.651
-5.92888
-0.598977
5.16507
10.5177
14.0859
16.1078
17.3699
18.1652
18.7122
19.0592
19.151
19.0636
19.0109
-22.7146
-21.9579
-20.8589
-19.3198
-17.3192
-14.5923
-10.9023
-6.18097
-0.84645
4.91335
10.2347
13.7761
15.7845
16.9937
17.7129
18.1489
18.4036
18.423
18.3227
18.3107
-22.8072
-22.1067
-21.0253
-19.5284
-17.5458
-14.8266
-11.1536
-6.44249
-1.11706
4.62782
9.91255
13.4221
15.3935
16.5123
17.1351
17.4861
17.6623
17.5926
17.4133
17.4721
-22.8943
-22.2458
-21.1884
-19.7319
-17.7609
-15.0398
-11.3819
-6.69536
-1.39551
4.32117
9.56603
13.0332
14.9352
15.9449
16.464
16.7135
16.7518
16.6178
16.4362
16.4984
-22.968
-22.3479
-21.3094
-19.8846
-17.9192
-15.1961
-11.5567
-6.91046
-1.65346
4.01868
9.21381
12.6167
14.4191
15.3082
15.7202
15.8607
15.7469
15.4586
15.1313
15.1121
-23.0217
-22.3969
-21.3754
-19.9621
-18
-15.2826
-11.6688
-7.07176
-1.87081
3.74053
8.86842
12.179
13.8644
14.6285
14.9177
14.9363
14.6922
14.0157
13.073
12.952
-23.0438
-22.4027
-21.3779
-19.9657
-18.01
-15.3069
-11.725
-7.17886
-2.04028
3.49634
8.53502
11.7253
13.2922
13.9366
14.0861
13.9587
13.5733
12.5468
10.6529
8.9954
-23.0417
-22.3765
-21.3302
-19.9142
-17.9656
-15.2835
-11.7363
-7.23916
-2.16294
3.28917
8.21557
11.2704
12.7294
13.2695
13.2882
12.9882
12.4092
11.4311
8.55193
0.927998
-23.0076
-22.3258
-21.2566
-19.831
-17.8861
-15.2264
-11.713
-7.26169
-2.24691
3.11187
7.8993
10.8147
12.1745
12.6389
12.562
12.1204
11.4602
10.7521
10.3459
7.48985
-22.9513
-22.2572
-21.1707
-19.7362
-17.7929
-15.1559
-11.6779
-7.27288
-2.32236
2.93468
7.5674
10.3582
11.6288
12.0604
11.9825
11.5913
11.1159
10.969
11.7143
11.0245
-22.869
-22.1781
-21.0809
-19.6401
-17.7019
-15.089
-11.6504
-7.2972
-2.4168
2.73665
7.2239
9.92146
11.127
11.5779
11.6072
11.4046
11.1368
11.048
11.4547
11.0451
-22.7711
-22.083
-20.984
-19.5479
-17.6187
-15.031
-11.6358
-7.34469
-2.54297
2.51018
6.87821
9.51491
10.7035
11.214
11.3958
11.3894
11.2362
11.0196
11.1131
11.0646
-22.6477
-21.973
-20.8792
-19.4526
-17.5402
-14.9828
-11.6339
-7.41352
-2.69752
2.26106
6.53908
9.14271
10.3783
10.9657
11.2811
11.4232
11.3588
11.1177
11.2009
11.2377
-22.4962
-21.8321
-20.7521
-19.345
-17.4581
-14.9376
-11.641
-7.49654
-2.86645
2.00601
6.21655
8.82448
10.1354
10.8112
11.2244
11.462
11.5212
11.357
11.4425
11.4769
-22.3083
-21.6552
-20.5914
-19.2097
-17.3561
-14.8823
-11.6467
-7.58184
-3.0339
1.76252
5.92237
8.56075
9.94841
10.7408
11.2097
11.5151
11.7163
11.6851
11.7516
11.7676
-22.0654
-21.4344
-20.3896
-19.0332
-17.2181
-14.7996
-11.6327
-7.65341
-3.18648
1.54214
5.66718
8.34698
9.81574
10.6988
11.2472
11.6118
11.9558
12.0571
12.1274
12.1339
-21.762
-21.1483
-20.1253
-18.8042
-17.0342
-14.6764
-11.5857
-7.69816
-3.31519
1.34753
5.44967
8.17189
9.71319
10.678
11.3157
11.7827
12.1887
12.4214
12.5257
12.5304
-21.3893
-20.7999
-19.7987
-18.5096
-16.7896
-14.5034
-11.4986
-7.71085
-3.41763
1.17603
5.25702
8.01684
9.62652
10.6802
11.4175
11.9674
12.4331
12.7345
12.8556
12.8576
-20.918
-20.3523
-19.3841
-18.144
-16.4861
-14.2804
-11.3719
-7.69349
-3.49793
1.01904
5.07435
7.86561
9.54539
10.6936
11.5228
12.1345
12.6195
12.9506
13.0833
13.0935
-20.342
-19.8013
-18.8785
-17.6926
-16.1102
-14.0015
-11.2052
-7.65024
-3.56366
0.865965
4.8884
7.70261
9.4505
10.6858
11.5893
12.2423
12.7448
13.1175
13.2759
13.2985
-19.6201
-19.1548
-18.2774
-17.1628
-15.6765
-13.6773
-11.0062
-7.58722
-3.62297
0.705508
4.68246
7.51013
9.32147
10.6324
11.603
12.3101
12.8633
13.2973
13.4941
13.5283
-18.7336
-18.3316
-17.5512
-16.5464
-15.1797
-13.31
-10.7782
-7.51124
-3.68551
0.52635
4.44125
7.26636
9.13397
10.5222
11.5769
12.3613
12.9715
13.4483
13.6848
13.7315
-17.7238
-17.3723
-16.7323
-15.8637
-14.6341
-12.9106
-10.5334
-7.43373
-3.76305
0.317832
4.14709
6.94804
8.86891
10.3405
11.4738
12.3096
12.9446
13.4317
13.704
13.7698
-16.559
-16.3886
-15.873
-15.1348
-14.06
-12.4996
-10.2861
-7.36306
-3.86265
0.0658814
3.78164
6.53635
8.48309
9.99274
11.1466
11.9857
12.623
13.1195
13.428
13.5191
-15.4744
-15.3623
-15.0118
-14.4267
-13.5158
-12.1123
-10.0593
-7.31679
-3.99776
-0.24273
3.31924
5.98179
7.88745
9.35877
10.4808
11.3076
11.9479
12.4599
12.7982
12.913
-14.6714
-14.5519
-14.2656
-13.818
-13.0546
-11.7847
-9.87187
-7.30311
-4.17708
-0.625849
2.72732
5.23288
7.03074
8.41217
9.47636
10.2816
10.9112
11.4135
11.7693
11.9131
-14.0623
-13.98
-13.8735
-13.5283
-12.8063
-11.5746
-9.74714
-7.32395
-4.39634
-1.09051
2.00319
4.31269
5.96519
7.21973
8.19024
8.92434
9.48382
9.91409
10.2263
10.3803
-13.9469
-13.8681
-14.0675
-13.7149
-12.86
-11.514
-9.67411
-7.35217
-4.60988
-1.55344
1.3051
3.4455
4.96585
6.10737
6.97991
7.59935
8.0387
8.35457
8.56981
8.67536
-15.2063
-15.2722
-15.3044
-14.3944
-13.0816
-11.4639
-9.55361
-7.30894
-4.74019
-1.92527
0.711991
2.67652
4.06729
5.11254
5.89147
6.40924
6.75074
6.9802
7.12061
7.17721
-16.1628
-16.475
-16.1671
-14.7724
-13.0717
-11.275
-9.3312
-7.16176
-4.76485
-2.20025
0.183905
1.92275
3.14537
4.0542
4.71132
5.12334
5.37911
5.54266
5.6379
5.67327
-14.2269
-14.454
-14.2239
-13.3012
-12.0138
-10.4895
-8.74621
-6.7871
-4.6296
-2.34003
-0.236366
1.25355
2.29211
3.04949
3.58238
3.90539
4.10253
4.22982
4.30434
4.33504
-10.0233
-10.1166
-10.1278
-9.95339
-9.50477
-8.68881
-7.514
-6.01082
-4.2427
-2.31032
-0.541299
0.698016
1.55075
2.16346
2.59407
2.85531
3.01805
3.1269
3.1935
3.21861
-6.25896
-6.30802
-6.40429
-6.51089
-6.50917
-6.28299
-5.7403
-4.82057
-3.57311
-2.11035
-0.727103
0.276717
0.95416
1.44122
1.8017
2.02051
2.15892
2.25677
2.31865
2.34302
-3.45612
-3.50172
-3.61472
-3.78582
-3.95914
-4.02806
-3.90085
-3.4729
-2.74061
-1.7691
-0.777514
0.00934552
0.537701
0.91963
1.23569
1.41242
1.52795
1.62297
1.67468
1.69655
-1.61554
-1.65729
-1.75482
-1.90546
-2.08463
-2.24383
-2.32585
-2.227
-1.89741
-1.33995
-0.684147
-0.101398
0.309293
0.60106
0.87123
1.00798
1.10927
1.18353
1.23015
1.2483
-0.546805
-0.581225
-0.665249
-0.783966
-0.91225
-1.04025
-1.16232
-1.21669
-1.13949
-0.878354
-0.484665
-0.0785613
0.222865
0.453
0.643585
0.759604
0.838575
0.891406
0.921766
0.93192
0.0641996
0.0313078
-0.0545656
-0.170531
-0.282223
-0.373003
-0.46376
-0.531574
-0.546853
-0.453787
-0.24138
0.0204744
0.224725
0.388687
0.522989
0.605344
0.658902
0.691528
0.70768
0.711789
0.351565
0.327311
0.247927
0.134133
0.0270131
-0.0502747
-0.117003
-0.161636
-0.177937
-0.137966
-0.0245206
0.132935
0.262374
0.368904
0.458349
0.509686
0.537772
0.551403
0.556048
0.556853
0.456668
0.440282
0.37424
0.272517
0.172618
0.0938186
0.0306302
-0.00119442
0.000438014
0.0411591
0.116222
0.215324
0.297647
0.361947
0.413814
0.438104
0.446988
0.448669
0.446887
0.445864
0.478055
0.466897
0.415658
0.329928
0.236232
0.152018
0.0827914
0.0510276
0.0632491
0.111777
0.176335
0.251465
0.305933
0.340077
0.362439
0.367211
0.367467
0.364866
0.3606
0.35852
0.463283
0.455896
0.418906
0.353059
0.270608
0.183572
0.101427
0.0584552
0.06646
0.11594
0.178234
0.243318
0.279341
0.291648
0.29771
0.294383
0.290946
0.286498
0.281639
0.279115
0.425941
0.421182
0.396922
0.353734
0.294501
0.21982
0.131962
0.0711473
0.0577929
0.0909879
0.14497
0.19927
0.222111
0.221753
0.22294
0.218661
0.214314
0.209922
0.205807
0.20385
0.372705
0.369883
0.356406
0.332446
0.301256
0.254432
0.182804
0.115926
0.0762102
0.0730021
0.100464
0.135189
0.148127
0.144241
0.14485
0.141499
0.138782
0.137071
0.135758
0.134981
0.317537
0.316049
0.310479
0.299642
0.287757
0.267766
0.226292
0.174623
0.120798
0.0812498
0.0689612
0.0771931
0.0827441
0.079912
0.0807436
0.0756571
0.0738718
0.0746602
0.0747244
0.0742499
0.271499
0.270712
0.269325
0.265201
0.261483
0.255236
0.235735
0.208096
0.163368
0.1092
0.0656681
0.0492255
0.0472334
0.0426226
0.0414579
0.0337384
0.0291428
0.0274607
0.025069
0.0237071
0.237357
0.236448
0.23622
0.23334
0.229941
0.224973
0.213114
0.202427
0.175523
0.131363
0.0829762
0.0542143
0.0433446
0.030443
0.0245256
0.0144359
0.00426939
-0.00396923
-0.0116897
-0.014131
0.212599
0.211197
0.209787
0.204336
0.196852
0.186495
0.172879
0.167634
0.153921
0.129904
0.0982846
0.0698522
0.0517455
0.0299952
0.01674
0.00203186
-0.0114165
-0.0252584
-0.0372072
-0.0398435
0.191156
0.189444
0.186048
0.176918
0.165081
0.148909
0.131121
0.123463
0.114767
0.110067
0.0995072
0.0766185
0.0574216
0.0303933
0.0120166
-0.00706416
-0.0228811
-0.0365193
-0.0495546
-0.0522253
0.167088
0.165212
0.160228
0.149705
0.137401
0.120508
0.101479
0.0901707
0.0796704
0.0807791
0.0818951
0.067513
0.0546841
0.027071
0.00741923
-0.0125496
-0.0281867
-0.040642
-0.054703
-0.0564656
0.13674
0.13562
0.130856
0.122436
0.115122
0.103137
0.087287
0.0745614
0.0575103
0.0510523
0.0498305
0.0396363
0.0354134
0.0131561
-0.00160373
-0.017022
-0.0294992
-0.0369282
-0.0488824
-0.0495454
0.100106
0.0991975
0.0963696
0.092261
0.0907662
0.0861611
0.0768304
0.0658639
0.0441535
0.029263
0.0206827
0.00647977
0.00840807
-0.00483662
-0.00978405
-0.0186254
-0.0258442
-0.0285496
-0.0360558
-0.0359505
0.0617567
0.0614777
0.0598317
0.0578006
0.0590353
0.055888
0.0518704
0.0484872
0.0308386
0.0160582
0.0061945
-0.0111699
-0.00740269
-0.0139696
-0.0118226
-0.0147341
-0.0177817
-0.0174879
-0.0216522
-0.0216821
0.0259724
0.027389
0.0254204
0.0220542
0.0222525
0.0160545
0.0159059
0.0184798
0.010369
0.00573358
0.00318068
-0.00913584
-0.00571628
-0.00911072
-0.00563302
-0.00376486
-0.00405108
-0.00203397
-0.00662433
-0.00659664
12.8035
15.9057
16.561
17.4824
18.1864
18.7915
19.3051
19.7066
19.9517
19.8054
15.967
17.4078
17.7702
18.3348
18.7995
19.1805
19.4764
19.6723
19.7244
19.6098
17.517
18.2069
18.505
18.8445
19.1289
19.3581
19.5257
19.625
19.6417
19.6247
18.358
18.7681
18.9624
19.1666
19.3342
19.4666
19.5589
19.6132
19.6327
19.649
18.9007
19.1079
19.2298
19.355
19.4584
19.5408
19.6002
19.6384
19.6546
19.6842
19.1896
19.3395
19.4004
19.4959
19.5571
19.6092
19.6483
19.6782
19.6984
19.7242
19.3996
19.4985
19.5314
19.598
19.636
19.6734
19.704
19.7285
19.7457
19.7718
19.5515
19.6161
19.6433
19.6804
19.7118
19.7393
19.7629
19.7849
19.8032
19.8256
19.6744
19.7153
19.7386
19.761
19.7848
19.8068
19.8271
19.8469
19.8627
19.8833
19.7796
19.8065
19.8258
19.8429
19.8606
19.878
19.8939
19.9101
19.9222
19.9412
19.8767
19.8948
19.9109
19.9249
19.939
19.9524
19.9642
19.9761
19.9846
20.0011
19.9671
19.9807
19.9955
20.008
20.0193
20.0299
20.0396
20.0486
20.0527
20.0644
20.0584
20.0697
20.084
20.0939
20.102
20.1097
20.1173
20.1239
20.1251
20.1324
20.1596
20.1644
20.1726
20.1775
20.1809
20.1852
20.191
20.1984
20.2022
20.2119
20.2738
20.2604
20.2525
20.2463
20.2435
20.2449
20.2509
20.2634
20.2782
20.3079
20.3936
20.3376
20.3073
20.2904
20.2822
20.2821
20.2912
20.3104
20.3417
20.411
)
;

boundaryField
{
    wall-4
    {
        type            zeroGradient;
    }
    pressure-outlet-7
    {
        type            fixedValue;
        value           uniform 0;
    }
    velocity-inlet-6
    {
        type            zeroGradient;
    }
    velocity-inlet-5
    {
        type            zeroGradient;
    }
    frontAndBackPlanes
    {
        type            empty;
    }
}


// ************************************************************************* //
