/*--------------------------------*- C++ -*----------------------------------*\
| =========                 |                                                 |
| \\      /  F ield         | OpenFOAM: The Open Source CFD Toolbox           |
|  \\    /   O peration     | Version:  2412                                  |
|   \\  /    A nd           | Website:  www.openfoam.com                      |
|    \\/     M anipulation  |                                                 |
\*---------------------------------------------------------------------------*/
FoamFile
{
    version     2.0;
    format      ascii;
    arch        "LSB;label=32;scalar=64";
    class       surfaceScalarField;
    location    "9.25";
    object      phi;
}
// * * * * * * * * * * * * * * * * * * * * * * * * * * * * * * * * * * * * * //

dimensions      [0 3 -1 0 0 0 0];

oriented        oriented;

internalField   nonuniform List<scalar> 
4262
(
-0.00188316
0.222396
-0.00425467
0.831025
-0.00671289
1.7696
-0.00950768
3.16796
-0.0129433
5.18804
-0.0162008
8.01762
-0.0190452
11.85
-0.0212711
16.822
-0.0238566
22.8844
-0.0239763
29.5285
-0.0243269
29.5287
-0.0230341
22.8805
-0.0207577
16.8175
-0.0166709
11.8431
-0.012995
8.01069
-0.00971465
5.18132
-0.00714058
3.16259
-0.0050556
1.76506
-0.00274263
0.82634
0.21777
-0.00431449
0.22671
-0.0104329
0.837143
-0.017922
1.77709
-0.0260206
3.17606
-0.0356357
5.19765
-0.0455851
8.02757
-0.0555489
11.8599
-0.0668047
16.8332
-0.0787501
22.8964
-0.0787729
29.5285
-0.072879
29.5228
-0.0634803
22.8711
-0.0540832
16.8081
-0.0450033
11.834
-0.036305
8.00199
-0.0281017
5.17312
-0.0201054
3.1546
-0.0131492
1.7581
-0.00560501
0.818796
0.212165
-0.00695412
0.233664
-0.0169037
0.847093
-0.0294539
1.78964
-0.0445689
3.19118
-0.0602173
5.2133
-0.0759086
8.04326
-0.0927292
11.8768
-0.105959
16.8465
-0.120906
22.9113
-0.12068
29.5283
-0.11727
29.5194
-0.108
22.8619
-0.0935012
16.7936
-0.0764941
11.817
-0.058898
7.98439
-0.0449031
5.15912
-0.0312171
3.14091
-0.0177913
1.74468
-0.00649989
0.807505
0.205665
-0.0103479
0.244012
-0.0254019
0.862147
-0.0430297
1.80727
-0.0628557
3.211
-0.0840646
5.23451
-0.104913
8.06411
-0.127933
11.8998
-0.147915
16.8664
-0.171782
22.9352
-0.172272
29.5288
-0.163367
29.5105
-0.145539
22.844
-0.121409
16.7694
-0.100959
11.7965
-0.0797176
7.96315
-0.0580147
5.13742
-0.0388525
3.12175
-0.0220398
1.72786
-0.00763822
0.793103
0.198027
-0.0132307
0.257243
-0.0321189
0.881035
-0.0545113
1.82966
-0.0795536
3.23604
-0.107812
5.26277
-0.135546
8.09185
-0.162837
11.9271
-0.1867
16.8903
-0.213525
22.962
-0.21366
29.5289
-0.205741
29.5026
-0.187155
22.8254
-0.160205
16.7425
-0.128418
11.7647
-0.0966463
7.93138
-0.0709735
5.11175
-0.047535
3.09831
-0.0261695
1.7065
-0.00845059
0.775384
0.189576
-0.0161907
0.273434
-0.0407159
0.90556
-0.0695361
1.85848
-0.101545
3.26805
-0.134738
5.29596
-0.166982
8.12409
-0.198762
11.9589
-0.230766
16.9223
-0.264573
22.9958
-0.264885
29.5292
-0.252626
29.4903
-0.223753
22.7966
-0.186072
16.7048
-0.149955
11.7286
-0.117729
7.89916
-0.0858792
5.0799
-0.0565121
3.06894
-0.0309222
1.68091
-0.0102097
0.754672
0.179367
-0.0194476
0.292881
-0.0463896
0.932502
-0.0778542
1.88995
-0.115069
3.30527
-0.155635
5.33653
-0.197317
8.16577
-0.233943
11.9955
-0.271467
16.9598
-0.308393
23.0327
-0.308473
29.5293
-0.293931
29.4758
-0.262192
22.7648
-0.225379
16.668
-0.178726
11.682
-0.13594
7.85637
-0.0991791
5.04314
-0.066457
3.03622
-0.037982
1.65243
-0.0134936
0.730183
0.165873
-0.019073
0.311954
-0.0497478
0.963177
-0.086204
1.9264
-0.127088
3.34615
-0.175543
5.38498
-0.228528
8.21876
-0.27602
12.043
-0.319856
17.0037
-0.362135
23.075
-0.361006
29.5282
-0.342167
29.4569
-0.300314
22.723
-0.250179
16.6179
-0.202081
11.6339
-0.15968
7.81397
-0.116899
5.00036
-0.078412
2.99773
-0.0445557
1.61858
-0.016415
0.702042
0.149458
-0.0190866
0.331041
-0.0544995
0.99859
-0.0974694
1.96937
-0.146393
3.39507
-0.196781
5.43537
-0.252291
8.27427
-0.308433
12.0991
-0.363185
17.0584
-0.411046
23.1229
-0.40988
29.527
-0.385513
29.4326
-0.341315
22.6788
-0.294796
16.5713
-0.237398
11.5765
-0.182474
7.75905
-0.133115
4.951
-0.0893436
2.95396
-0.0509766
1.58021
-0.0199599
0.671026
0.129498
-0.0223917
0.353432
-0.0619982
1.0382
-0.109854
2.01723
-0.16176
3.44698
-0.221428
5.49504
-0.287922
8.34076
-0.354107
12.1653
-0.415352
17.1197
-0.469802
23.1773
-0.466813
29.524
-0.439419
29.4052
-0.389875
22.6292
-0.326131
16.5076
-0.263666
11.514
-0.20283
7.69821
-0.144291
4.89246
-0.0939502
2.90362
-0.0529925
1.53925
-0.0219957
0.640029
0.107502
-0.0282049
0.381637
-0.0765292
1.08652
-0.13093
2.07163
-0.190768
3.50682
-0.25291
5.55718
-0.319384
8.40724
-0.391643
12.2376
-0.462556
17.1906
-0.524871
23.2396
-0.523825
29.523
-0.493841
29.3752
-0.438206
22.5736
-0.373291
16.4427
-0.298381
11.4391
-0.221572
7.6214
-0.155023
4.82591
-0.0964679
2.84507
-0.0482737
1.49106
-0.0198776
0.611633
0.0876248
-0.0355423
0.41718
-0.0924084
1.14339
-0.149687
2.12891
-0.21469
3.57182
-0.287806
5.6303
-0.365167
8.4846
-0.442107
12.3145
-0.521596
17.2701
-0.589894
23.3079
-0.590486
29.5235
-0.560005
29.3447
-0.496398
22.51
-0.410786
16.3571
-0.323395
11.3517
-0.242149
7.54015
-0.164524
4.74828
-0.0960405
2.77658
-0.0407121
1.43573
-0.0165002
0.587421
0.0711247
-0.0448403
0.46202
-0.113827
1.21237
-0.180111
2.19519
-0.248775
3.64049
-0.324919
5.70644
-0.409906
8.56958
-0.498282
12.4029
-0.584796
17.3566
-0.655351
23.3785
-0.659752
29.528
-0.628464
29.3134
-0.554595
22.4361
-0.462727
16.2652
-0.362541
11.2515
-0.265245
7.44286
-0.177204
4.66024
-0.0997453
2.69912
-0.0377704
1.37375
-0.0150172
0.564668
0.0561074
-0.0477473
0.509767
-0.121277
1.2859
-0.195072
2.26899
-0.280492
3.72591
-0.37071
5.79666
-0.463251
8.66212
-0.554894
12.4945
-0.656187
17.4579
-0.735072
23.4574
-0.742471
29.5353
-0.708207
29.2792
-0.622642
22.3506
-0.510659
16.1532
-0.39723
11.1381
-0.292834
7.33846
-0.195256
4.56267
-0.11079
2.61466
-0.0443322
1.3073
-0.0172263
0.537562
0.0388811
-0.05643
0.566197
-0.144619
1.37409
-0.221598
2.34596
-0.307865
3.81217
-0.409895
5.89869
-0.52099
8.77322
-0.63241
12.6059
-0.738627
17.5641
-0.82053
23.5393
-0.830907
29.5457
-0.788471
29.2367
-0.689772
22.2519
-0.570778
16.0342
-0.444852
11.0122
-0.326913
7.22052
-0.224447
4.4602
-0.133216
2.52343
-0.0586026
1.23268
-0.0222273
0.501186
0.0166538
-0.0557802
0.621978
-0.143869
1.46218
-0.240915
2.44301
-0.35069
3.92195
-0.464213
6.01221
-0.584875
8.89388
-0.709116
12.7302
-0.839817
17.6948
-0.929231
23.6287
-0.936778
29.5533
-0.87935
29.1793
-0.762909
22.1354
-0.625288
15.8966
-0.490572
10.8774
-0.365476
7.09543
-0.251282
4.34601
-0.15336
2.4255
-0.0734306
1.15275
-0.0284879
0.456244
-0.0118341
-0.0665166
0.688494
-0.162956
1.55862
-0.25778
2.53784
-0.375319
4.03949
-0.512468
6.14936
-0.653279
9.03469
-0.800001
12.8769
-0.947288
17.8421
-1.04504
23.7264
-1.0497
29.5579
-0.978853
29.1085
-0.848659
22.0052
-0.700186
15.7481
-0.548051
10.7253
-0.400437
6.94781
-0.271017
4.21659
-0.16767
2.32216
-0.0851647
1.07025
-0.0334575
0.404536
-0.0452917
-0.0684504
0.756945
-0.175326
1.6655
-0.296327
2.65884
-0.436503
4.17966
-0.586071
6.29893
-0.748
9.19662
-0.912493
13.0414
-1.08458
18.0142
-1.18561
23.8275
-1.18356
29.5559
-1.09785
29.0227
-0.947436
21.8548
-0.771939
15.5726
-0.598643
10.552
-0.436989
6.78616
-0.292477
4.07207
-0.174225
2.2039
-0.0895216
0.985545
-0.0363456
0.35136
-0.0816373
-0.0816616
0.838606
-0.203074
1.78691
-0.335638
2.7914
-0.48876
4.33279
-0.657237
6.46741
-0.836465
9.37585
-1.02713
13.2321
-1.2278
18.2148
-1.33561
23.9353
-1.33034
29.5506
-1.23107
28.9235
-1.06027
21.684
-0.862705
15.3751
-0.66303
10.3523
-0.472798
6.59593
-0.30987
3.90915
-0.175028
2.06906
-0.0938637
0.904381
-0.0391598
0.296656
-0.120797
-0.0974781
0.936084
-0.233047
1.92248
-0.386075
2.94443
-0.56919
4.5159
-0.760644
6.65886
-0.968079
9.58328
-1.18227
13.4463
-1.40513
18.4377
-1.51453
24.0447
-1.50566
29.5417
-1.3874
28.8052
-1.187
21.4836
-0.956641
15.1447
-0.732185
10.1279
-0.521486
6.38523
-0.336404
3.72406
-0.182111
1.91477
-0.0981151
0.820385
-0.0421491
0.24069
-0.162946
-0.107535
1.04362
-0.265493
2.08043
-0.444629
3.12356
-0.642303
4.71357
-0.861952
6.87851
-1.10144
9.82278
-1.35258
13.6974
-1.60331
18.6884
-1.70955
24.1509
-1.69637
29.5286
-1.5622
28.671
-1.32798
21.2494
-1.0628
14.8795
-0.804258
9.86934
-0.570138
6.15111
-0.368103
3.52203
-0.193753
1.74042
-0.109636
0.736268
-0.0476079
0.178662
-0.210554
-0.137653
1.18127
-0.325152
2.26793
-0.52366
3.32207
-0.751651
4.94156
-1.00252
7.12938
-1.28151
10.1018
-1.57793
13.9938
-1.84855
18.959
-1.94895
24.2513
-1.92388
29.5035
-1.75243
28.4996
-1.47633
20.9733
-1.17343
14.5766
-0.878191
9.5741
-0.617598
5.89052
-0.39415
3.29858
-0.214456
1.56073
-0.128759
0.650571
-0.0563935
0.106297
-0.266948
-0.146389
1.32766
-0.339743
2.46129
-0.577613
3.55994
-0.854386
5.21834
-1.16919
7.44418
-1.51174
10.4443
-1.84887
14.3309
-2.12669
19.2368
-2.21394
24.3386
-2.17286
29.4624
-1.95862
28.2853
-1.62948
20.6442
-1.27295
14.2201
-0.940884
9.24204
-0.650388
5.60002
-0.413071
3.06126
-0.231594
1.37925
-0.146764
0.565741
-0.0686943
0.0282273
-0.335642
-0.201882
1.52954
-0.459328
2.71873
-0.737149
3.83776
-1.05333
5.53452
-1.42006
7.81091
-1.80519
10.8294
-2.18956
14.7153
-2.46736
19.5146
-2.53343
24.4047
-2.4657
29.3947
-2.18384
28.0035
-1.78639
20.2467
-1.37322
13.8069
-0.989513
8.85833
-0.665555
5.27606
-0.418583
2.81429
-0.259032
1.2197
-0.181733
0.488442
-0.0865855
-0.0669197
-0.422227
-0.232384
1.76193
-0.494044
2.98039
-0.858978
4.2027
-1.29575
5.97129
-1.74355
8.25871
-2.18151
11.2674
-2.59699
15.1308
-2.85086
19.7685
-2.88965
24.4435
-2.78582
29.2908
-2.4203
27.638
-1.93248
19.7589
-1.45572
13.3302
-1.0341
8.43671
-0.683646
4.92561
-0.422692
2.55334
-0.289115
1.08612
-0.223131
0.422457
-0.104904
-0.185147
-0.527131
-0.383008
2.14494
-0.838272
3.43566
-1.29179
4.65621
-1.73447
6.41398
-2.19795
8.72219
-2.66354
11.733
-3.09727
15.5645
-3.30742
19.9787
-3.31779
24.4538
-3.13512
29.1082
-2.66776
27.1706
-2.10586
19.197
-1.55692
12.7812
-1.06398
7.94377
-0.662536
4.52417
-0.375676
2.26648
-0.23731
0.947754
-0.163557
0.348704
-0.0788443
-0.26986
-0.605975
-0.289563
2.4345
-0.649402
3.7955
-1.02323
5.03005
-1.47033
6.86108
-1.97482
9.22668
-2.51461
12.2728
-3.04246
16.0924
-3.35516
20.2914
-3.53864
24.6373
-3.50528
29.0748
-3.07848
26.7438
-2.45617
18.5747
-1.80046
12.1255
-1.19633
7.33964
-0.689083
4.01692
-0.289786
1.86718
-0.110229
0.768197
-0.0339161
0.272391
-0.043474
-0.260302
-0.649449
-0.174174
2.60867
-0.435067
4.05639
-0.750126
5.3451
-1.09188
7.20283
-1.44854
9.58334
-1.82159
12.6458
-2.18475
16.4555
-2.39314
20.4998
-2.50867
24.7528
-2.41944
28.9856
-2.02785
26.3522
-1.50052
18.0473
-0.99331
11.6183
-0.551995
6.89833
-0.230142
3.69507
-0.0210635
1.6581
0.0614156
0.685718
0.0804028
0.253404
0.0317335
-0.211632
-0.617716
-0.104256
2.71293
-0.242837
4.19497
-0.448584
5.55085
-0.693353
7.4476
-0.978512
9.8685
-1.26084
12.9282
-1.5048
16.6995
-1.64481
20.6398
-1.69997
24.808
-1.56852
28.8541
-1.23082
26.0145
-0.828686
17.6452
-0.454309
11.2439
-0.176226
6.62024
-0.0107183
3.52956
0.0698715
1.57751
0.095916
0.659673
0.0951528
0.254167
0.049091
-0.165571
-0.568625
-0.0835717
2.7965
-0.22575
4.33715
-0.38308
5.70818
-0.539886
7.60441
-0.687498
10.0161
-0.847449
13.0881
-0.993683
16.8457
-1.08579
20.7319
-1.09234
24.8146
-0.937933
28.6997
-0.654569
25.7312
-0.353512
17.3441
-0.111621
11.002
0.102073
6.40655
0.230063
3.40157
0.244012
1.56356
0.217875
0.685811
0.146607
0.325435
0.0567371
-0.0757007
-0.511888
-0.0406559
2.83716
-0.10027
4.39676
-0.193033
5.80095
-0.308039
7.71941
-0.432303
10.1404
-0.54693
13.2027
-0.634388
16.9332
-0.678178
20.7757
-0.641524
24.7779
-0.47807
28.5363
-0.236668
25.4898
-0.0223904
17.1299
0.189097
10.7905
0.282711
6.31294
0.31466
3.36962
0.279117
1.59911
0.203866
0.761062
0.131419
0.397881
0.0608713
-0.00515251
-0.451016
0.00956935
2.82759
-0.102017
4.50835
-0.205912
5.90484
-0.237419
7.75092
-0.273351
10.1763
-0.327441
13.2568
-0.375781
16.9815
-0.384168
20.7841
-0.317257
24.711
-0.141321
28.3603
0.0698366
25.2786
0.255375
16.9443
0.36
10.6859
0.412468
6.26047
0.41005
3.37204
0.339311
1.66985
0.248371
0.852003
0.15903
0.487222
0.0658629
0.0880144
-0.385154
0.0190605
2.80853
-0.0283853
4.55579
-0.0504582
5.92691
-0.0861022
7.78656
-0.139708
10.2299
-0.176349
13.2935
-0.194991
17.0002
-0.176115
20.7652
-0.0910287
24.6259
0.0753346
28.194
0.269543
25.0844
0.402556
16.8113
0.481218
10.6073
0.475422
6.26627
0.451199
3.39626
0.387243
1.7338
0.277452
0.961794
0.167123
0.597551
0.0539111
0.201226
-0.331242
0.0103533
2.79817
-0.0336188
4.59977
-0.0683367
5.96163
-0.0718934
7.79012
-0.0686814
10.2267
-0.0679255
13.2927
-0.059331
16.9916
-0.0296128
20.7355
0.0523222
24.544
0.196236
28.05
0.371204
24.9094
0.487613
16.6949
0.552464
10.5424
0.556775
6.26195
0.481454
3.47158
0.357215
1.85804
0.238703
1.08031
0.132573
0.703681
0.0440593
0.28974
-0.287183
0.0525722
2.7456
0.052901
4.59944
0.038764
5.97577
0.00724873
7.82163
-0.00599119
10.2399
0.00867091
13.278
0.0243248
16.9759
0.0549273
20.7049
0.135816
24.4631
0.271234
27.9146
0.428421
24.7522
0.536356
16.587
0.579349
10.4994
0.544157
6.29715
0.489972
3.52577
0.389267
1.95875
0.255304
1.21427
0.130958
0.828028
0.033675
0.387023
-0.253508
0.0421087
2.70349
0.0112327
4.63031
0.0177157
5.96929
0.00460524
7.83475
0.0184877
10.2261
0.0416297
13.2549
0.0654136
16.9521
0.105418
20.6649
0.183641
24.3849
0.312473
27.7858
0.456733
24.608
0.551784
16.4919
0.582906
10.4683
0.560683
6.31937
0.462387
3.62407
0.340555
2.08058
0.224138
1.33068
0.114072
0.938094
0.0214237
0.479671
-0.232085
0.0568143
2.64668
0.0906097
4.59652
0.077106
5.98279
0.0563645
7.85549
0.0442727
10.2381
0.0642757
13.2349
0.0906595
16.9257
0.132971
20.6225
0.207609
24.3102
0.32916
27.6642
0.46242
24.4747
0.543566
16.4108
0.561611
10.4502
0.525273
6.35571
0.464171
3.68517
0.347426
2.19732
0.202093
1.47602
0.0818723
1.05831
0.0074678
0.554076
-0.224617
0.0492715
2.59741
0.0483156
4.59747
0.0519377
5.97917
0.0499528
7.85747
0.0540953
10.234
0.0761234
13.2129
0.10498
16.8969
0.147102
20.5804
0.217686
24.2396
0.329364
27.5526
0.44926
24.3548
0.512101
16.3479
0.520145
10.4422
0.492052
6.3838
0.397889
3.77933
0.288232
2.30698
0.187724
1.57653
0.0795704
1.16647
0.00678825
0.626858
-0.217828
0.0559961
2.54141
0.0834587
4.57001
0.0841039
5.97852
0.0795695
7.86201
0.0707502
10.2428
0.0848633
13.1988
0.112793
16.869
0.153547
20.5397
0.219312
24.1739
0.317687
27.4542
0.417384
24.2551
0.464518
16.3008
0.468115
10.4386
0.442464
6.40945
0.388568
3.83323
0.268033
2.42751
0.126964
1.7176
0.030099
1.26333
-0.00429566
0.661253
-0.222124
0.0442969
2.49711
0.0469959
4.56731
0.0544345
5.97108
0.0649839
7.85146
0.074889
10.2329
0.0887205
13.1849
0.116924
16.8408
0.156271
20.5003
0.2162
24.1139
0.299129
27.3713
0.374199
24.1801
0.407987
16.267
0.402514
10.4441
0.372855
6.43911
0.293665
3.91242
0.195262
2.52592
0.107181
1.80568
0.0166634
1.35385
-0.0118251
0.689741
-0.233949
0.0426903
2.45442
0.0625886
4.54741
0.0679407
5.96573
0.0740669
7.84533
0.0795523
10.2274
0.0926428
13.1718
0.119157
16.8142
0.156505
20.463
0.209774
24.0607
0.275947
27.3051
0.325936
24.1301
0.346077
16.2469
0.336412
10.4537
0.316863
6.45866
0.269129
3.96015
0.166047
2.629
0.0384624
1.93326
-0.0435597
1.43587
-0.0257274
0.671909
-0.259677
0.0334697
2.42095
0.0337449
4.54714
0.0409627
5.95851
0.0539595
7.83233
0.0726441
10.2088
0.0927214
13.1518
0.11964
16.7873
0.154879
20.4277
0.201172
24.0144
0.251376
27.2549
0.27985
24.1016
0.285735
16.241
0.269867
10.4696
0.238328
6.4902
0.16852
4.02996
0.0818636
2.71566
0.000699857
2.01442
-0.0665149
1.50309
-0.0383868
0.643781
-0.298063
0.0291157
2.39184
0.041509
4.53475
0.0473523
5.95267
0.0543417
7.82535
0.0688851
10.1942
0.0909346
13.1297
0.117975
16.7603
0.151529
20.3942
0.191214
23.9747
0.22668
27.2194
0.237089
24.0912
0.227607
16.2505
0.204782
10.4924
0.176691
6.51829
0.122401
4.08425
0.038439
2.79962
-0.0416884
2.09455
-0.0872842
1.54868
-0.0524374
0.608934
-0.350501
0.0212732
2.37056
0.0198689
4.53615
0.0261531
5.94639
0.0381031
7.8134
0.0605566
10.1718
0.0861138
13.1042
0.11478
16.7316
0.147307
20.3617
0.18105
23.941
0.203643
27.1968
0.19977
24.0951
0.175692
16.2745
0.142629
10.5255
0.0990079
6.56191
0.0243137
4.15894
-0.0401026
2.86404
-0.0835678
2.13802
-0.0810643
1.54618
-0.0302247
0.558094
-0.380725
0.016714
2.35385
0.0214691
4.5314
0.0301341
5.93772
0.0378646
7.80566
0.0552698
10.1543
0.0798401
13.0796
0.10931
16.7021
0.141879
20.3291
0.171184
23.9116
0.182023
27.186
0.167212
24.1099
0.129435
16.3123
0.0825931
10.5723
0.0330341
6.61147
-0.0356873
4.22766
-0.096945
2.92529
-0.115415
2.15649
-0.0621305
1.49289
0.0501292
0.445835
-0.330596
0.00973871
2.34411
0.00789127
4.53324
0.0145157
5.9311
0.0269969
7.79318
0.0484808
10.1329
0.0736612
13.0544
0.103943
16.6719
0.13498
20.298
0.159915
23.8867
0.163826
27.1821
0.140359
24.1333
0.0887913
16.3639
0.0271052
10.634
-0.0386946
6.67727
-0.136048
4.32502
-0.206419
2.99566
-0.18838
2.13845
0.0071568
1.29736
0.217157
0.235835
-0.113439
0.00659421
2.33752
0.0100819
4.52976
0.0174532
5.92372
0.027375
7.78326
0.0441818
10.1161
0.0683025
13.0303
0.0992719
16.6409
0.129567
20.2678
0.152312
23.864
0.154572
27.1798
0.123298
24.1646
0.055275
16.4319
-0.0245114
10.7138
-0.111926
6.76468
-0.214392
4.42748
-0.300094
3.08136
-0.324502
2.16286
-0.247704
1.22056
-0.516326
0.504456
0.65968
-1.28944
0.00115804
2.33636
0.00235033
4.52856
0.00631947
5.91976
0.0202986
7.76928
0.0399008
10.0965
0.0635502
13.0066
0.0936825
16.6108
0.122026
20.2394
0.142182
23.8438
0.141526
27.1805
0.102993
24.2031
0.0183205
16.5166
-0.0738378
10.806
-0.20056
6.89141
-0.389511
4.61643
-0.609552
3.30141
-0.719468
2.27277
-0.787316
1.28841
-1.36419
1.08133
1.20783
-1.91234
-0.000919175
2.33728
0.00587039
4.52177
0.00961178
5.91601
0.0230048
7.75589
0.0387146
10.0807
0.0604678
12.9849
0.0888006
16.5824
0.115451
20.2128
0.133441
23.8258
0.129978
27.1839
0.0843229
24.2488
-0.0137525
16.6147
-0.130651
10.9229
-0.297555
7.05831
-0.509469
4.82835
-0.724426
3.51636
-0.824816
2.37316
-1.21384
1.67743
-1.75698
1.62447
1.47679
-2.02594
-0.00540621
2.34268
0.000190544
4.51618
0.00297068
5.91323
0.0192184
7.73964
0.0378
10.0622
0.0585602
12.9641
0.0852125
16.5558
0.110427
20.1875
0.126382
23.8099
0.120534
27.1898
0.0686485
24.3007
-0.039324
16.7226
-0.182375
11.0659
-0.386924
7.26286
-0.689996
5.13142
-0.966908
3.79328
-1.20881
2.61506
-1.60683
2.07545
-1.91731
1.93495
1.63075
-2.07127
-0.00425808
2.34694
0.00267238
4.50925
0.00760001
5.90831
0.0226294
7.72461
0.0391505
10.0456
0.0587635
12.9445
0.083468
16.5311
0.106912
20.1641
0.121077
23.7957
0.113061
27.1978
0.0543083
24.3594
-0.0649687
16.8419
-0.231597
11.2326
-0.484644
7.51591
-0.783162
5.42994
-0.968627
3.97874
-1.24599
2.89242
-1.67299
2.50245
-1.94819
2.21015
1.80335
-2.12079
-0.00487481
2.35182
-0.00150566
4.50588
0.00426309
5.90254
0.0211432
7.70773
0.0413852
10.0254
0.062026
12.9239
0.0860934
16.507
0.108197
20.142
0.120621
23.7833
0.109517
27.2089
0.042695
24.4263
-0.0884485
16.9731
-0.269792
11.4139
-0.540275
7.78639
-0.854594
5.74426
-1.17789
4.30204
-1.57763
3.29216
-1.91836
2.84318
-2.12376
2.41555
1.91853
-2.23894
-0.000440259
2.35226
0.00389667
4.50154
0.0119137
5.89452
0.0260145
7.69363
0.0453327
10.0061
0.0666689
12.9025
0.0904807
16.4832
0.111207
20.1213
0.121919
23.7726
0.106858
27.224
0.0322371
24.5009
-0.108637
17.1139
-0.303417
11.6087
-0.60547
8.08844
-0.937028
6.07582
-1.20997
4.57498
-1.54024
3.62243
-1.87298
3.17593
-2.07878
2.62134
2.09949
-2.25974
0.000524887
2.35173
0.0030954
4.49897
0.00901745
5.8886
0.0246462
7.678
0.0473521
9.98338
0.0698762
12.88
0.0940754
16.459
0.113822
20.1015
0.122866
23.7635
0.103781
27.243
0.0238818
24.5808
-0.122845
17.2607
-0.323739
11.8096
-0.626188
8.39089
-0.964295
6.41392
-1.28412
4.8948
-1.67755
4.01586
-2.11268
3.61106
-2.43734
2.94601
2.36
-2.69785
0.00721199
2.34452
0.0104556
4.49573
0.0193069
5.87975
0.0308761
7.66643
0.0501568
9.9641
0.0726136
12.8575
0.0972025
16.4344
0.115969
20.0828
0.123225
23.7563
0.100496
27.2658
0.0179576
24.6633
-0.131125
17.4097
-0.334642
12.0131
-0.63681
8.69306
-0.995863
6.77298
-1.38473
5.28367
-1.7423
4.37342
-2.12398
3.99274
-2.53744
3.35947
2.541
-2.71844
0.00709197
2.33743
0.0106787
4.49214
0.0158466
5.87458
0.0302854
7.652
0.0519991
9.94238
0.0752492
12.8343
0.100599
16.4091
0.118897
20.0645
0.124355
23.7508
0.0985171
27.2916
0.0161652
24.7457
-0.132456
17.5584
-0.337464
12.2181
-0.636236
8.99183
-0.960998
7.09774
-1.33961
5.66229
-1.84838
4.88219
-2.16747
4.31183
-2.56631
3.75831
3.14566
-3.17097
0.0141854
2.32324
0.0197623
4.48656
0.0284137
5.86593
0.0378482
7.64256
0.0544398
9.92579
0.0762507
12.8125
0.101601
16.3837
0.118837
20.0472
0.122678
23.747
0.0956025
27.3187
0.0172772
24.824
-0.124244
17.6999
-0.323869
12.4177
-0.59223
9.26019
-0.867978
7.37349
-1.1887
5.98301
-1.54908
5.24256
-1.70326
4.46601
-1.23268
3.28774
1.91298
0.0115145
2.31173
0.0178581
4.48022
0.02416
5.85963
0.0387846
7.62794
0.0596971
9.90488
0.0828982
12.7893
0.110648
16.356
0.12979
20.0281
0.134229
23.7425
0.106601
27.3463
0.0277206
24.9029
-0.113745
17.8413
-0.317118
12.6211
-0.574318
9.51739
-0.787328
7.5865
-0.964584
6.16027
-0.962745
5.24072
-0.857082
4.36034
-0.590938
3.02159
1.32204
0.020017
2.29171
0.0279436
4.47229
0.0388913
5.84868
0.0503177
7.61651
0.0679218
9.88727
0.0909631
12.7662
0.120492
16.3264
0.141708
20.0069
0.147859
23.7364
0.122317
27.3719
0.0455041
24.9797
-0.0874614
17.9743
-0.284468
12.8181
-0.511124
9.74405
-0.666234
7.74161
-0.780415
6.27445
-0.848618
5.30893
-0.845912
4.35764
-0.721677
2.89736
0.600361
0.0123252
2.27939
0.0230867
4.46153
0.0326796
5.83909
0.0512433
7.59795
0.0758305
9.86269
0.101776
12.7403
0.133528
16.2947
0.157495
19.9829
0.166946
23.7269
0.145779
27.393
0.0731636
25.0523
-0.0479306
18.0954
-0.225786
12.996
-0.416294
9.93455
-0.569468
7.89478
-0.691003
6.39598
-0.786412
5.40434
-0.754616
4.32584
-0.370291
2.51303
0.230071
0.025619
2.25377
0.0343157
4.45283
0.0488447
5.82456
0.0650677
7.58172
0.0878298
9.83993
0.114739
12.7134
0.148948
16.2605
0.17621
19.9556
0.19061
23.7125
0.17635
27.4073
0.112047
25.1166
-0.00268667
18.2101
-0.147212
13.1405
-0.337876
10.1252
-0.508394
8.0653
-0.631546
6.51914
-0.666841
5.43963
-0.517339
4.17634
-0.154528
2.15022
0.0755428
0.0112681
2.2425
0.027553
4.43655
0.0413389
5.81077
0.0664458
7.55662
0.0979649
9.80841
0.130332
12.681
0.169089
16.2217
0.201119
19.9236
0.222112
23.6915
0.216988
27.4124
0.164824
25.1688
0.0714227
18.3035
-0.072134
13.284
-0.264559
10.3176
-0.413103
8.21384
-0.501949
6.60798
-0.488818
5.4265
-0.370546
4.05807
-0.144125
1.9238
-0.0685822
0.0329518
2.20955
0.0422825
4.42722
0.0613129
5.79174
0.0842463
7.53368
0.11488
9.77777
0.150064
12.6458
0.193788
16.178
0.231644
19.8857
0.260398
23.6628
0.267005
27.4058
0.231125
25.2046
0.15393
18.3807
0.00126968
13.4367
-0.171994
10.4909
-0.293011
8.33486
-0.344577
6.65955
-0.336443
5.41837
-0.254319
3.97594
-0.0669139
1.7364
-0.135496
0.0128947
2.19665
0.0365783
4.40354
0.0553608
5.77296
0.0881602
7.50088
0.129246
9.73669
0.172729
12.6024
0.224739
16.126
0.270727
19.8398
0.309104
23.6244
0.329514
27.3854
0.313016
25.2211
0.244738
18.449
0.0963353
13.5851
-0.0614624
10.6487
-0.1543
8.4277
-0.19222
6.69747
-0.183163
5.40931
-0.114215
3.90699
0.0208558
1.60133
-0.11464
0.0435296
2.15312
0.0571523
4.38991
0.0841547
5.74596
0.115742
7.4693
0.15635
9.69608
0.203891
12.5548
0.263398
16.0665
0.318133
19.785
0.36706
23.5755
0.40148
27.351
0.402131
25.2205
0.343005
18.5081
0.198507
13.7296
0.052314
10.7949
-0.0179566
8.49797
-0.0415146
6.72103
-0.0466591
5.41445
-0.0110122
3.87135
0.0571013
1.53321
-0.0575391
0.0221718
2.13095
0.0556723
4.35641
0.0816341
5.71999
0.124867
7.42606
0.180334
9.64061
0.238706
12.4964
0.310206
15.995
0.376581
19.7187
0.437732
23.5143
0.486999
27.3017
0.50183
25.2057
0.449834
18.5601
0.316553
13.8629
0.183523
10.9279
0.105549
8.57594
0.079854
6.74672
0.0744601
5.41985
0.0856964
3.86011
0.0833605
1.53555
0.0258214
0.0616147
2.06934
0.0863893
4.33164
0.12829
5.67809
0.170847
7.38351
0.226384
9.58507
0.289024
12.4338
0.370118
15.9139
0.448155
19.6406
0.521317
23.4412
0.583759
27.2393
0.613093
25.1763
0.570975
18.6023
0.442283
13.9916
0.308675
11.0615
0.222042
8.66258
0.17097
6.79779
0.153044
5.43777
0.143381
3.86977
0.0919422
1.58699
0.117764
0.0406617
2.02868
0.0932198
4.27908
0.133696
5.63762
0.191661
7.32554
0.268867
9.50787
0.34558
12.3571
0.441787
15.8177
0.53452
19.5479
0.621775
23.3539
0.697924
27.1631
0.740095
25.1342
0.699351
18.643
0.563306
14.1276
0.426112
11.1987
0.328053
8.76064
0.266166
6.85968
0.245476
5.45846
0.222555
3.89269
0.0958121
1.71373
0.213576
0.100198
1.92848
0.147223
4.23205
0.206431
5.57841
0.272438
7.25954
0.346996
9.43331
0.429783
12.2743
0.535834
15.7116
0.642065
19.4416
0.742885
23.2531
0.828152
27.0778
0.881281
25.081
0.838167
18.6861
0.691982
14.2738
0.55068
11.34
0.455731
8.85558
0.401701
6.91371
0.370175
5.48999
0.305791
3.95708
0.119251
1.90027
0.332826
0.0745888
1.85389
0.169866
4.13678
0.241869
5.50641
0.329736
7.17167
0.426827
9.33622
0.529089
12.172
0.651474
15.5892
0.773839
19.3193
0.889524
23.1374
0.984795
26.9826
1.04334
25.0225
0.985848
18.7436
0.829974
14.4297
0.689226
11.4808
0.590957
8.95385
0.520718
6.98395
0.468136
5.54257
0.380877
4.04434
0.168059
2.11309
0.500886
0.161815
1.69207
0.265589
4.033
0.362359
5.40964
0.460345
7.07368
0.563126
9.23344
0.673404
12.0618
0.805808
15.4568
0.940897
19.1842
1.06943
23.0089
1.16874
26.8833
1.22586
24.9654
1.15225
18.8172
0.983985
14.5979
0.828018
11.6367
0.7019
9.07997
0.604819
7.08103
0.532057
5.61533
0.432722
4.14367
0.210385
2.33542
0.711271
0.225249
1.46682
0.38117
3.87708
0.481578
5.30923
0.592836
6.96242
0.720859
9.10542
0.849653
11.933
1.00029
15.3062
1.15168
19.0328
1.2935
22.867
1.39845
26.7783
1.44391
24.9199
1.33459
18.9265
1.13142
14.8011
0.939716
11.8285
0.778244
9.24144
0.656987
7.20229
0.564992
5.70733
0.451529
4.25714
0.224455
2.5625
0.935726
0.342242
1.12458
0.562958
3.65637
0.711514
5.16067
0.837795
6.83614
0.966049
8.97716
1.10077
11.7983
1.25806
15.1489
1.41967
18.8712
1.57281
22.7139
1.67824
26.6729
1.69485
24.9033
1.53447
19.0869
1.29123
15.0444
1.07053
12.0491
0.887002
9.42497
0.743141
7.34615
0.624177
5.82629
0.481779
4.39953
0.235431
2.80885
1.17116
0.622059
0.502523
0.889214
3.38921
0.985266
5.06462
1.10528
6.71613
1.25752
8.82492
1.4107
11.6451
1.58544
14.9741
1.76596
18.6907
1.93183
22.548
2.03716
26.5676
2.01226
24.9282
1.80515
19.294
1.53452
15.315
1.27948
12.3042
1.03999
9.66447
0.83091
7.55523
0.655439
6.00176
0.474026
4.58095
0.226625
3.05625
1.39778
0.560431
-0.0579078
1.23702
2.71262
1.4885
4.81315
1.59443
6.6102
1.6944
8.72494
1.83327
11.5062
2.0134
14.794
2.20688
18.4972
2.38499
22.3699
2.49504
26.4575
2.44093
24.9823
2.20679
19.5281
1.91843
15.6034
1.61944
12.6032
1.30414
9.97977
1.0181
7.84127
0.773835
6.24603
0.535533
4.81925
0.247531
3.34425
1.64531
0.43636
-0.494268
1.58394
1.56504
1.98202
4.41507
2.0969
6.49532
2.20614
8.61571
2.35979
11.3526
2.56123
14.5926
2.78333
18.2751
2.99223
22.161
3.13978
26.3099
3.08291
25.0392
2.82487
19.7862
2.48295
15.9453
2.1302
12.9559
1.76519
10.3448
1.39171
8.21474
1.02421
6.61353
0.670575
5.17289
0.302782
3.71204
1.94809
0.326121
-0.820389
1.6906
0.20056
2.22547
3.8802
2.2627
6.45809
2.25561
8.62279
2.31288
11.2953
2.38866
14.5168
2.46539
18.1984
2.51986
22.1066
2.50845
26.3214
2.34516
25.2025
2.07772
20.0536
1.77683
16.2462
1.47019
13.2626
1.17878
10.6362
0.930609
8.46291
0.706632
6.83751
0.477773
5.40174
0.222185
3.96763
2.17028
0.379773
-1.20016
1.02469
-0.444361
1.57437
3.33053
1.68151
6.35094
1.63057
8.67373
1.60719
11.3187
1.65884
14.4651
1.75614
18.1011
1.8401
22.0226
1.87816
26.2833
1.78516
25.2955
1.58358
20.2552
1.35908
16.4707
1.13487
13.4868
0.899728
10.8713
0.683284
8.67936
0.496195
7.0246
0.318165
5.57977
0.139309
4.14649
2.30959
0.391526
-1.59169
0.132635
-0.185469
0.33568
3.12748
0.545338
6.14128
0.652554
8.56652
0.760005
11.2112
0.902998
14.3222
1.07289
17.9312
1.21759
21.8779
1.32088
26.18
1.30355
25.3128
1.16987
20.3889
1.00379
16.6367
0.834181
13.6564
0.656762
11.0487
0.492488
8.84363
0.350618
7.16647
0.219954
5.71044
0.0887944
4.27765
2.39838
-0.13145
-1.46024
-0.760516
0.443597
-1.01204
3.379
-0.80288
5.93213
-0.469661
8.2333
-0.143
10.8846
0.136909
14.0422
0.399394
17.6687
0.634734
21.6426
0.821361
25.9934
0.882363
25.2518
0.816377
20.4549
0.709501
16.7436
0.592376
13.7735
0.466433
11.1747
0.34748
8.96258
0.243108
7.27084
0.143656
5.80989
0.0466292
4.37467
2.44501
-0.47742
-0.982818
-0.990425
0.956603
-1.27805
3.66663
-1.26563
5.9197
-1.108
8.07567
-0.835943
10.6125
-0.510094
13.7164
-0.170311
17.3289
0.126161
21.3461
0.388055
25.7315
0.521385
25.1185
0.523437
20.4528
0.471605
16.7955
0.400643
13.8445
0.314667
11.2607
0.230156
9.04709
0.153887
7.34711
0.078635
5.88514
0.00932549
4.44398
2.45434
-0.475171
-0.507647
-0.95811
1.43954
-1.17472
3.88324
-1.26821
6.01319
-1.26695
8.07442
-1.13923
10.4848
-0.901536
13.4787
-0.591671
17.019
-0.266427
21.0208
0.0494834
25.4156
0.234516
24.9335
0.289462
20.3979
0.280256
16.8047
0.242397
13.8823
0.188428
11.3146
0.12981
9.10571
0.0730197
7.4039
0.0199774
5.93819
-0.0227878
4.48675
2.43155
-0.436128
-0.0715189
-0.822286
1.8257
-1.03816
4.09911
-1.1399
6.11493
-1.20091
8.13542
-1.19231
10.4762
-1.06222
13.3486
-0.824496
16.7813
-0.526237
20.7226
-0.188918
25.0782
0.0290312
24.7155
0.10457
20.3223
0.128576
16.7807
0.112443
13.8985
0.0844489
11.3426
0.0439068
9.14625
0.00575627
7.44205
-0.0323623
5.9763
-0.0561045
4.51049
2.37545
-0.343858
0.272339
-0.683638
2.16548
-0.894357
4.30983
-1.0034
6.22398
-1.06831
8.20033
-1.09182
10.4997
-1.05717
13.314
-0.906576
16.6307
-0.657033
20.473
-0.341327
24.7625
-0.127707
24.5019
-0.0362093
20.2308
-0.00159445
16.746
0.0158098
13.8811
-0.00467369
11.3631
-0.030518
9.1721
-0.0588641
7.4704
-0.0830375
6.00048
-0.0808494
4.5083
2.2946
-0.292829
0.565168
-0.584584
2.45724
-0.777315
4.50256
-0.898388
6.34505
-0.969686
8.27163
-0.988214
10.5182
-0.955539
13.2813
-0.870222
16.5454
-0.687581
20.2904
-0.420273
24.4952