/*--------------------------------*- C++ -*----------------------------------*\
| =========                 |                                                 |
| \\      /  F ield         | OpenFOAM: The Open Source CFD Toolbox           |
|  \\    /   O peration     | Version:  2412                                  |
|   \\  /    A nd           | Website:  www.openfoam.com                      |
|    \\/     M anipulation  |                                                 |
\*---------------------------------------------------------------------------*/
FoamFile
{
    version     2.0;
    format      ascii;
    arch        "LSB;label=32;scalar=64";
    class       volVectorField;
    location    "9.25";
    object      U;
}
// * * * * * * * * * * * * * * * * * * * * * * * * * * * * * * * * * * * * * //

dimensions      [0 1 -1 0 0 0 0];

internalField   nonuniform List<vector> 
2200
(
(0.381413 0.000431962 0)
(1.19503 0.00160141 0)
(2.12311 0.00263647 0)
(3.16915 0.00374326 0)
(4.3244 0.00508308 0)
(5.57026 0.00645762 0)
(6.86173 0.00759054 0)
(8.11794 0.00876504 0)
(9.20454 0.00879825 0)
(9.90018 0.00963607 0)
(9.90154 0.00933685 0)
(9.20692 0.0100299 0)
(8.12044 0.00916906 0)
(6.86598 0.00832759 0)
(5.57357 0.00627834 0)
(4.32642 0.00515077 0)
(3.16775 0.00390006 0)
(2.12183 0.00288195 0)
(1.19282 0.00188608 0)
(0.377663 0.00100292 0)
(0.386478 0.000984364 0)
(1.20021 0.00338972 0)
(2.12832 0.00663863 0)
(3.1737 0.0102878 0)
(4.33208 0.0139638 0)
(5.57866 0.0177597 0)
(6.87051 0.0216455 0)
(8.12724 0.0254066 0)
(9.21181 0.0299689 0)
(9.90184 0.0317473 0)
(9.89983 0.030988 0)
(9.20445 0.027568 0)
(8.11884 0.0244463 0)
(6.85737 0.0206261 0)
(5.56498 0.0188116 0)
(4.31772 0.0144951 0)
(3.16274 0.0109867 0)
(2.11532 0.00789947 0)
(1.18349 0.00453284 0)
(0.370728 0.00124675 0)
(0.397296 0.00174002 0)
(1.21218 0.00531292 0)
(2.13991 0.0105017 0)
(3.18451 0.0168546 0)
(4.33884 0.0237537 0)
(5.58323 0.030146 0)
(6.87252 0.0363957 0)
(8.12622 0.0421628 0)
(9.21231 0.0473046 0)
(9.89996 0.049249 0)
(9.89901 0.0487133 0)
(9.20134 0.0466102 0)
(8.1108 0.0426062 0)
(6.85405 0.0375631 0)
(5.55909 0.0293109 0)
(4.31033 0.0235168 0)
(3.14895 0.017661 0)
(2.10039 0.0112188 0)
(1.16926 0.00568365 0)
(0.360877 0.000930122 0)
(0.411184 0.00258742 0)
(1.22882 0.00776657 0)
(2.15796 0.0157566 0)
(3.20276 0.0235099 0)
(4.35826 0.0328079 0)
(5.60145 0.0418215 0)
(6.88954 0.050062 0)
(8.14136 0.0587994 0)
(9.22466 0.0672949 0)
(9.90151 0.0717891 0)
(9.89628 0.0696306 0)
(9.19359 0.0647372 0)
(8.10278 0.0569164 0)
(6.83722 0.0474352 0)
(5.54078 0.0409549 0)
(4.29148 0.031406 0)
(3.13359 0.021702 0)
(2.08407 0.013935 0)
(1.15238 0.0067178 0)
(0.348703 0.000947082 0)
(0.432849 0.00328274 0)
(1.25472 0.00997849 0)
(2.18003 0.0196467 0)
(3.2219 0.0299337 0)
(4.37338 0.0411206 0)
(5.6138 0.053159 0)
(6.89819 0.0645754 0)
(8.14603 0.0747049 0)
(9.23029 0.0850593 0)
(9.8998 0.0886333 0)
(9.8929 0.0879707 0)
(9.18727 0.0822261 0)
(8.08969 0.0743728 0)
(6.82762 0.0646296 0)
(5.5287 0.049692 0)
(4.27542 0.037494 0)
(3.11204 0.0267932 0)
(2.06207 0.0165853 0)
(1.12951 0.00773185 0)
(0.334731 0.000835097 0)
(0.458691 0.00404601 0)
(1.28684 0.0119746 0)
(2.21409 0.0257223 0)
(3.25459 0.0385046 0)
(4.40832 0.0519189 0)
(5.64462 0.0651662 0)
(6.92443 0.0786719 0)
(8.16748 0.0923589 0)
(9.24677 0.104798 0)
(9.90114 0.111831 0)
(9.89004 0.10807 0)
(9.17594 0.101697 0)
(8.07584 0.0882343 0)
(6.80311 0.0721842 0)
(5.50122 0.0607112 0)
(4.24885 0.0456256 0)
(3.08649 0.0317906 0)
(2.03261 0.0192022 0)
(1.10298 0.00896149 0)
(0.319575 0.00139233 0)
(0.490391 0.00429927 0)
(1.32778 0.0142189 0)
(2.25297 0.0281954 0)
(3.29124 0.0437595 0)
(4.43052 0.0608183 0)
(5.66396 0.0767071 0)
(6.93964 0.0927494 0)
(8.17798 0.107831 0)
(9.25853 0.123767 0)
(9.90031 0.129396 0)
(9.88438 0.127679 0)
(9.16609 0.117564 0)
(8.05877 0.105335 0)
(6.78882 0.0907509 0)
(5.48337 0.0688423 0)
(4.22317 0.0523404 0)
(3.05414 0.0367398 0)
(2.00089 0.0226963 0)
(1.07047 0.0110334 0)
(0.299147 0.00262311 0)
(0.520678 0.0032986 0)
(1.35808 0.015112 0)
(2.28279 0.0304937 0)
(3.32306 0.0477581 0)
(4.47696 0.067366 0)
(5.7066 0.0898117 0)
(6.97646 0.109274 0)
(8.20745 0.127521 0)
(9.27948 0.144697 0)
(9.90258 0.15349 0)
(9.88207 0.147759 0)
(9.15246 0.138656 0)
(8.0388 0.119859 0)
(6.75552 0.0975095 0)
(5.44591 0.0810498 0)
(4.18819 0.0601956 0)
(3.02244 0.0429174 0)
(1.96429 0.0278263 0)
(1.03112 0.0124029 0)
(0.272352 0.00402776 0)
(0.558344 0.00263949 0)
(1.41987 0.0163604 0)
(2.34473 0.0328707 0)
(3.37425 0.0535972 0)
(4.50642 0.0783329 0)
(5.73287 0.0992152 0)
(6.99826 0.122055 0)
(8.22402 0.143781 0)
(9.29717 0.165411 0)
(9.90242 0.17311 0)
(9.87394 0.169408 0)
(9.13746 0.155063 0)
(8.01621 0.137279 0)
(6.73577 0.117692 0)
(5.421 0.089943 0)
(4.15117 0.0689417 0)
(2.97374 0.0498792 0)
(1.91577 0.0320951 0)
(0.986143 0.0136718 0)
(0.240269 0.00542616 0)
(0.586999 0.00329144 0)
(1.46 0.0195414 0)
(2.38716 0.0356523 0)
(3.4248 0.0602176 0)
(4.5676 0.084849 0)
(5.78615 0.114852 0)
(7.04337 0.140694 0)
(8.26192 0.165339 0)
(9.32275 0.188905 0)
(9.90608 0.199309 0)
(9.87145 0.191245 0)
(9.12135 0.177917 0)
(7.9899 0.154608 0)
(6.69061 0.126113 0)
(5.36967 0.103036 0)
(4.1043 0.0764567 0)
(2.93449 0.0533427 0)
(1.87566 0.0335162 0)
(0.944611 0.0139202 0)
(0.204547 0.00609185 0)
(0.64158 0.00414742 0)
(1.54203 0.0246613 0)
(2.46641 0.0452402 0)
(3.48235 0.0693516 0)
(4.60644 0.0992903 0)
(5.82293 0.125656 0)
(7.07611 0.156141 0)
(8.28599 0.184682 0)
(9.34455 0.212424 0)
(9.9058 0.222427 0)
(9.86022 0.216274 0)
(9.09774 0.198004 0)
(7.9554 0.173314 0)
(6.6606 0.147428 0)
(5.33564 0.113343 0)
(4.05838 0.0839109 0)
(2.87802 0.0564657 0)
(1.82128 0.0326066 0)
(0.901552 0.0116119 0)
(0.168052 0.00593156 0)
(0.682518 0.0062541 0)
(1.59633 0.0298305 0)
(2.52039 0.052534 0)
(3.55152 0.0810527 0)
(4.67859 0.108467 0)
(5.88116 0.143829 0)
(7.12222 0.175201 0)
(8.3276 0.20833 0)
(9.37204 0.239191 0)
(9.90891 0.25221 0)
(9.85477 0.242744 0)
(9.07643 0.224769 0)
(7.92158 0.195488 0)
(6.60246 0.158692 0)
(5.26513 0.125915 0)
(3.99194 0.0913204 0)
(2.81763 0.0586197 0)
(1.76224 0.0289311 0)
(0.865299 0.00931168 0)
(0.137803 0.00524157 0)
(0.769645 0.00783624 0)
(1.71232 0.0364011 0)
(2.60282 0.0691067 0)
(3.60701 0.0928504 0)
(4.72445 0.124151 0)
(5.93054 0.157371 0)
(7.16755 0.198442 0)
(8.36118 0.233481 0)
(9.39572 0.267142 0)
(9.90634 0.27999 0)
(9.83818 0.272762 0)
(9.04075 0.251253 0)
(7.87016 0.218468 0)
(6.55488 0.182539 0)
(5.21805 0.139197 0)
(3.92894 0.100359 0)
(2.74035 0.0611986 0)
(1.68536 0.0276989 0)
(0.830031 0.00868513 0)
(0.110132 0.00489791 0)
(0.830424 0.00935693 0)
(1.78837 0.0374177 0)
(2.68508 0.0698713 0)
(3.69875 0.109669 0)
(4.80952 0.140638 0)
(5.99407 0.181436 0)
(7.21688 0.217965 0)
(8.40482 0.26094 0)
(9.42427 0.298945 0)
(9.9067 0.315082 0)
(9.82553 0.306495 0)
(9.01041 0.284237 0)
(7.82629 0.24618 0)
(6.48299 0.199271 0)
(5.12445 0.155493 0)
(3.83712 0.109491 0)
(2.65738 0.0661621 0)
(1.61121 0.0312367 0)
(0.796486 0.011727 0)
(0.0835973 0.0047861 0)
(0.940471 0.0110053 0)
(1.92936 0.0443354 0)
(2.77199 0.0872261 0)
(3.77014 0.114515 0)
(4.8783 0.16023 0)
(6.06498 0.202113 0)
(7.27719 0.251144 0)
(8.45468 0.292493 0)
(9.45159 0.333206 0)
(9.9012 0.350999 0)
(9.80193 0.343306 0)
(8.96247 0.317497 0)
(7.75914 0.274904 0)
(6.41893 0.226469 0)
(5.06711 0.171248 0)
(3.76635 0.121879 0)
(2.56954 0.0780707 0)
(1.5214 0.0395009 0)
(0.746522 0.016776 0)
(0.0473341 0.00511032 0)
(1.02296 0.0103397 0)
(2.0448 0.0438726 0)
(2.88741 0.0845693 0)
(3.88626 0.138199 0)
(4.9801 0.178034 0)
(6.14998 0.232123 0)
(7.3513 0.27924 0)
(8.51329 0.331607 0)
(9.48624 0.377222 0)
(9.90124 0.395659 0)
(9.78363 0.385779 0)
(8.92481 0.355742 0)
(7.70755 0.306134 0)
(6.33974 0.245426 0)
(4.96174 0.187745 0)
(3.66129 0.13587 0)
(2.46957 0.0905951 0)
(1.43081 0.0465715 0)
(0.692137 0.0221238 0)
(0.00693362 0.00600106 0)
(1.13355 0.0156522 0)
(2.17907 0.0492609 0)
(2.98848 0.0981086 0)
(3.9813 0.136005 0)
(5.07805 0.202633 0)
(6.24011 0.256924 0)
(7.42265 0.31657 0)
(8.5826 0.372863 0)
(9.52158 0.424149 0)
(9.89887 0.445025 0)
(9.75838 0.430516 0)
(8.86953 0.394554 0)
(7.63039 0.338753 0)
(6.26214 0.276031 0)
(4.89012 0.20486 0)
(3.57998 0.145906 0)
(2.37979 0.101572 0)
(1.33274 0.0498796 0)
(0.616802 0.0267457 0)
(-0.049494 0.00654821 0)
(1.2618 0.0119364 0)
(2.33828 0.0558768 0)
(3.13981 0.104761 0)
(4.13947 0.165198 0)
(5.21389 0.225125 0)
(6.35927 0.298752 0)
(7.53092 0.361379 0)
(8.66276 0.427518 0)
(9.56518 0.483771 0)
(9.90416 0.50266 0)
(9.73925 0.484555 0)
(8.82289 0.439718 0)
(7.56248 0.375059 0)
(6.16474 0.299308 0)
(4.763 0.226643 0)
(3.4461 0.159137 0)
(2.26137 0.10998 0)
(1.23191 0.0503231 0)
(0.545268 0.0281614 0)
(-0.107602 0.00766185 0)
(1.36599 0.0199671 0)
(2.48229 0.0588708 0)
(3.27303 0.128335 0)
(4.26047 0.177809 0)
(5.3373 0.257892 0)
(6.46974 0.328822 0)
(7.61861 0.405841 0)
(8.75303 0.484188 0)
(9.60912 0.546341 0)
(9.9063 0.567576 0)
(9.71061 0.542376 0)
(8.75508 0.491259 0)
(7.46721 0.416893 0)
(6.06026 0.336757 0)
(4.66384 0.25023 0)
(3.33783 0.173455 0)
(2.14386 0.111708 0)
(1.13187 0.0506499 0)
(0.464756 0.0306005 0)
(-0.175041 0.00824168 0)
(1.56157 0.0195014 0)
(2.70731 0.0755611 0)
(3.478 0.138753 0)
(4.46683 0.213954 0)
(5.50319 0.29566 0)
(6.61495 0.382805 0)
(7.75067 0.465712 0)
(8.85371 0.554261 0)
(9.65567 0.623461 0)
(9.9111 0.643421 0)
(9.68254 0.613979 0)
(8.68802 0.550275 0)
(7.36983 0.464947 0)
(5.93271 0.372321 0)
(4.50089 0.281513 0)
(3.17297 0.189558 0)
(1.99252 0.11717 0)
(1.03463 0.0532682 0)
(0.38783 0.0313936 0)
(-0.243007 0.0102602 0)
(1.69094 0.026466 0)
(2.86621 0.0769826 0)
(3.63947 0.169366 0)
(4.62536 0.23603 0)
(5.66935 0.339102 0)
(6.76705 0.431667 0)
(7.87089 0.529033 0)
(8.96183 0.634118 0)
(9.69794 0.70629 0)
(9.9067 0.726523 0)
(9.63824 0.69052 0)
(8.59713 0.620825 0)
(7.24584 0.520449 0)
(5.79278 0.413277 0)
(4.36899 0.309391 0)
(3.02918 0.208481 0)
(1.83509 0.123258 0)
(0.934318 0.0582127 0)
(0.306396 0.0356546 0)
(-0.319368 0.0117876 0)
(1.96364 0.0281212 0)
(3.19296 0.104403 0)
(3.93106 0.196633 0)
(4.88381 0.283448 0)
(5.87062 0.393798 0)
(6.94271 0.496855 0)
(8.02578 0.614446 0)
(9.08459 0.733514 0)
(9.74036 0.809779 0)
(9.90035 0.82644 0)
(9.58534 0.781601 0)
(8.49601 0.694613 0)
(7.11525 0.578532 0)
(5.63512 0.459326 0)
(4.18012 0.335369 0)
(2.83935 0.223848 0)
(1.64338 0.130742 0)
(0.82536 0.069138 0)
(0.203604 0.040193 0)
(-0.40978 0.0157808 0)
(2.14364 0.0394496 0)
(3.39096 0.100501 0)
(4.11953 0.211211 0)
(5.08822 0.319847 0)
(6.09639 0.45619 0)
(7.14467 0.583091 0)
(8.18765 0.716444 0)
(9.21043 0.851086 0)
(9.77259 0.925082 0)
(9.88096 0.937085 0)
(9.51276 0.878634 0)
(8.36913 0.777393 0)
(6.9456 0.639757 0)
(5.44852 0.492243 0)
(4.00717 0.360895 0)
(2.6579 0.231206 0)
(1.47933 0.139318 0)
(0.737096 0.0750713 0)
(0.102852 0.0483292 0)
(-0.512875 0.0194947 0)
(2.52769 0.0401254 0)
(3.80387 0.152565 0)
(4.51975 0.279529 0)
(5.42936 0.392402 0)
(6.36433 0.547506 0)
(7.3738 0.691901 0)
(8.38632 0.852684 0)
(9.34598 0.997917 0)
(9.80392 1.06802 0)
(9.85879 1.06901 0)
(9.42573 0.990196 0)
(8.22218 0.864 0)
(6.77296 0.700314 0)
(5.25256 0.532115 0)
(3.78091 0.366097 0)
(2.45587 0.239263 0)
(1.29233 0.1421 0)
(0.631724 0.0922038 0)
(-0.0105955 0.0593443 0)
(-0.63467 0.0256286 0)
(2.7923 0.0648014 0)
(4.09867 0.14814 0)
(4.78267 0.306077 0)
(5.70601 0.475215 0)
(6.65533 0.665949 0)
(7.62815 0.839942 0)
(8.60717 1.02208 0)
(9.47254 1.17098 0)
(9.81775 1.22872 0)
(9.82241 1.21736 0)
(9.31623 1.10938 0)
(8.0482 0.951358 0)
(6.55151 0.756456 0)
(5.01196 0.556236 0)
(3.55748 0.380748 0)
(2.2343 0.243535 0)
(1.1433 0.146856 0)
(0.543844 0.112993 0)
(-0.180623 0.0749856 0)
(-0.825119 0.0251625 0)
(3.39257 0.0865129 0)
(4.63639 0.264278 0)
(5.29581 0.461102 0)
(6.15021 0.644519 0)
(7.00908 0.848958 -1.31568e-32)
(7.91876 1.04102 4.81475e-33)
(8.85275 1.23914 0)
(9.5927 1.37788 0)
(9.82733 1.4201 0)
(9.7801 1.38863 0)
(9.18896 1.24322 0)
(7.84715 1.04817 0)
(6.32212 0.814867 0)
(4.76265 0.583761 0)
(3.28017 0.3792 0)
(2.00328 0.226856 0)
(0.998519 0.124427 0)
(0.436169 0.0898607 0)
(-0.370656 0.0639569 0)
(-1.02771 6.81211e-05 0)
(3.97996 0.213514 -1.48662e-18)
(5.08 0.357562 1.23253e-18)
(5.66776 0.608502 0)
(6.49194 0.827252 -7.19807e-19)
(7.34367 1.07037 5.8147e-19)
(8.20671 1.281 -5.10932e-33)
(9.11254 1.49624 0)
(9.67929 1.61763 -8.87326e-20)
(9.82074 1.64701 1.52428e-19)
(9.70276 1.58962 -4.18018e-21)
(9.00783 1.40309 0)
(7.57153 1.15562 -2.55531e-19)
(5.98094 0.873353 -3.26508e-19)
(4.38563 0.606776 5.65428e-19)
(2.93585 0.382261 -4.596e-19)
(1.69935 0.187342 0)
(0.849491 0.0755727 -1.71822e-19)
(0.37193 0.0209589 0)
(-0.422831 0.00176209 -8.96117e-19)
(-1.10136 -0.0317611 1.04978e-18)
(4.34279 0.41935 1.26541e-19)
(5.54209 0.629005 -5.42928e-18)
(6.09412 0.924185 8.07006e-19)
(6.871 1.14601 2.96881e-18)
(7.63182 1.36167 1.29936e-18)
(8.43237 1.56389 -2.0612e-18)
(9.27097 1.78052 0)
(9.7085 1.88938 0)
(9.78426 1.91079 -2.49668e-19)
(9.59787 1.82946 0)
(8.80986 1.59899 8.06257e-19)
(7.30006 1.30233 2.79319e-19)
(5.68892 0.958152 -2.54593e-20)
(4.10931 0.64284 -7.0081e-19)
(2.67314 0.367447 0)
(1.46532 0.157635 0)
(0.730221 0.0600632 -2.92365e-18)
(0.323277 -0.00677313 7.31203e-18)
(-0.310373 -0.0310153 -4.32695e-18)
(-1.09379 -0.121051 -5.14787e-18)
(4.56727 0.666583 5.05129e-18)
(5.72247 0.940832 -1.97194e-18)
(6.2626 1.18392 -7.11592e-19)
(7.02304 1.38236 -5.46846e-18)
(7.78412 1.62473 4.30535e-19)
(8.57079 1.85746 5.67834e-18)
(9.34534 2.07776 -1.62324e-18)
(9.69135 2.17672 0)
(9.71716 2.18781 5.17252e-19)
(9.47132 2.07866 7.77195e-19)
(8.62003 1.80428 -2.29275e-18)
(7.06727 1.45183 1.25581e-18)
(5.44233 1.05771 -1.03151e-18)
(3.86824 0.680013 2.21478e-18)
(2.48676 0.393062 0)
(1.32161 0.180727 -8.3315e-19)
(0.669547 0.0673398 0)
(0.309232 0.0154241 4.39192e-18)
(-0.290191 -0.0674923 -1.03641e-17)
(-1.02027 -0.163742 6.55049e-18)
(4.69819 0.908273 -2.08017e-17)
(6.02359 1.34171 1.08543e-17)
(6.53695 1.57831 1.91417e-18)
(7.24405 1.75977 0)
(7.9292 1.96556 3.73977e-18)
(8.65334 2.17936 -4.40271e-18)
(9.36397 2.38479 1.6833e-18)
(9.63979 2.47378 0)
(9.62481 2.47354 -3.67034e-19)
(9.33329 2.33563 -4.65712e-19)
(8.43714 2.01575 2.41409e-18)
(6.86365 1.6103 0)
(5.25811 1.15574 -2.27433e-18)
(3.71775 0.754316 1.20982e-18)
(2.3725 0.412101 3.14544e-18)
(1.29079 0.1741 -2.83778e-18)
(0.657396 0.0511743 4.37718e-18)
(0.330996 -0.00670974 -9.76614e-18)
(-0.169248 -0.0689889 6.15134e-18)
(-0.901556 -0.188612 -7.71457e-18)
(4.73932 1.14778 1.16864e-17)
(6.03494 1.62681 -1.13464e-17)
(6.5609 1.81505 6.20614e-18)
(7.26324 2.00094 -9.5666e-18)
(7.9574 2.27106 7.38729e-18)
(8.67457 2.50587 -1.7155e-18)
(9.33502 2.70564 1.00543e-19)
(9.55859 2.78153 1.78999e-18)
(9.50862 2.76358 2.87659e-19)
(9.18236 2.59603 -1.42781e-18)
(8.26202 2.23085 -5.46432e-18)
(6.68861 1.76119 -2.14624e-18)
(5.10393 1.25386 -5.47017e-20)
(3.57644 0.799876 -4.73102e-18)
(2.3079 0.476068 -4.3727e-20)
(1.32014 0.211971 4.28756e-18)
(0.733212 0.0900905 -1.35676e-18)
(0.448878 0.0554892 -7.34174e-19)
(-0.0354323 -0.0527914 0)
(-0.825137 -0.212424 1.76421e-17)
(4.76415 1.27806 0)
(6.16232 2.00492 3.19932e-18)
(6.68626 2.1753 0)
(7.33781 2.38386 -3.48838e-19)
(7.97592 2.60657 -8.23774e-18)
(8.64687 2.82925 3.46094e-18)
(9.26837 3.02327 -2.05789e-18)
(9.45592 3.09157 -2.53425e-18)
(9.37941 3.05405 -1.4012e-19)
(9.03269 2.85701 4.8902e-20)
(8.10452 2.44686 3.08323e-18)
(6.54546 1.9217 4.83493e-18)
(4.98599 1.36357 -3.10203e-18)
(3.52862 0.904683 5.36281e-18)
(2.26491 0.511534 -4.31957e-18)
(1.30297 0.234895 0)
(0.759769 0.108605 -1.06041e-17)
(0.485586 0.0674096 1.42281e-17)
(0.0390452 -0.0469724 1.09536e-18)
(-0.680926 -0.202252 -1.97981e-17)
(4.6353 1.46163 -3.97412e-19)
(6.06753 2.23361 -7.57731e-18)
(6.62294 2.36657 -2.71282e-17)
(7.26551 2.60717 1.68265e-17)
(7.90943 2.89077 -5.47783e-18)
(8.57619 3.14058 3.86811e-18)
(9.17252 3.33782 -4.6705e-18)
(9.33484 3.39754 1.49611e-18)
(9.24224 3.3394 4.39654e-19)
(8.88528 3.11584 -1.82717e-19)
(7.95882 2.66435 -3.87862e-18)
(6.42056 2.09002 -5.71355e-18)
(4.87935 1.48939 3.59835e-18)
(3.43867 0.974474 -1.99026e-18)
(2.24473 0.589387 4.97618e-18)
(1.40924 0.295571 0)
(0.921067 0.16238 -6.93738e-18)
(0.66784 0.140696 1.03061e-17)
(0.245155 0.0188515 1.94949e-17)
(-0.58337 -0.185997 -2.27943e-17)
(4.59376 1.67386 -3.88881e-17)
(6.1192 2.54538 1.95047e-17)
(6.65674 2.69086 1.75016e-17)
(7.24311 2.95873 -1.80454e-17)
(7.8511 3.19692 3.68097e-19)
(8.48278 3.43827 8.76059e-18)
(9.05809 3.63822 2.06174e-18)
(9.20467 3.69337 6.46706e-19)
(9.1027 3.61623 -6.22381e-19)
(8.73807 3.37034 8.87114e-19)
(7.81729 2.88269 3.25749e-18)
(6.30175 2.26375 8.93776e-18)
(4.79459 1.62153 0)
(3.44481 1.08595 1.81924e-19)
(2.28261 0.636499 -1.43362e-17)
(1.41758 0.355146 3.42147e-18)
(0.955829 0.231997 1.5795e-17)
(0.712114 0.195792 -4.66329e-18)
(0.31985 0.0686668 9.73209e-18)
(-0.507507 -0.183797 -7.89822e-19)
(4.43573 1.78801 4.09782e-19)
(5.98552 2.69349 1.73826e-17)
(6.52682 2.83569 1.27425e-17)
(7.1224 3.15561 -2.98612e-17)
(7.7415 3.44681 2.2009e-17)
(8.3673 3.71816 -9.60833e-18)
(8.93052 3.92742 -2.24826e-18)
(9.06688 3.97819 -3.12797e-18)
(8.95657 3.88282 -4.09209e-19)
(8.58375 3.61707 -2.70653e-18)
(7.67467 3.09741 0)
(6.19039 2.43659 -3.77807e-18)
(4.728 1.7587 4.32511e-18)
(3.4042 1.18215 5.50452e-18)
(2.30409 0.743239 -3.26077e-18)
(1.55644 0.436802 -7.58639e-18)
(1.13388 0.307782 -2.29115e-18)
(0.879935 0.30216 -1.37482e-19)
(0.469315 0.138741 0)
(-0.429419 -0.159137 0)
(4.33964 1.93047 -1.74983e-17)
(5.94808 2.95908 0)
(6.48868 3.12451 1.38541e-17)
(7.05055 3.4471 -5.94844e-18)
(7.64118 3.71195 -2.28446e-17)
(8.23827 3.98081 6.40888e-18)
(8.79107 4.19673 -2.47334e-18)
(8.92213 4.24689 2.63641e-18)
(8.80489 4.13822 -6.34093e-19)
(8.42707 3.855 -2.06929e-18)
(7.53534 3.30629 2.05899e-18)
(6.08668 2.60858 1.23746e-17)
(4.66926 1.89648 3.47825e-19)
(3.40666 1.29945 -5.99671e-18)
(2.33042 0.808359 1.0972e-17)
(1.56028 0.527589 2.7908e-20)
(1.17077 0.392057 2.45293e-18)
(0.966125 0.372644 -1.20435e-17)
(0.587512 0.223907 1.22592e-17)
(-0.38546 -0.152907 -1.43494e-17)
(4.15958 2.01304 -7.48583e-21)
(5.79997 3.06903 0)
(6.34534 3.2291 0)
(6.905 3.60152 5.87817e-18)
(7.50715 3.9214 8.41923e-18)
(8.09946 4.22172 -5.67702e-18)
(8.64658 4.44978 6.59296e-18)
(8.7713 4.50058 0)
(8.64904 4.38105 2.62269e-19)
(8.27072 4.08271 4.51974e-18)
(7.4011 3.50794 7.65535e-18)
(5.9908 2.77854 -4.7425e-18)
(4.61913 2.03713 -5.77679e-18)
(3.38667 1.41214 1.36053e-17)
(2.37347 0.927635 -3.95969e-18)
(1.70266 0.619379 -4.64977e-18)
(1.33518 0.503501 -2.85712e-18)
(1.07694 0.497227 -1.34315e-17)
(0.659007 0.28944 1.91558e-18)
(-0.367015 -0.151893 1.60723e-17)
(4.04909 2.11381 -6.74837e-18)
(5.72846 3.28381 -1.05541e-17)
(6.26513 3.47545 5.26516e-19)
(6.80167 3.83681 -2.05654e-20)
(7.38129 4.13883 3.55352e-18)
(7.95293 4.44451 -1.28713e-17)
(8.49397 4.68204 0)
(8.61694 4.7365 -8.50728e-19)
(8.49559 4.61069 6.69823e-19)
(8.12311 4.30129 7.5256e-18)
(7.27669 3.70389 -1.6451e-18)
(5.90186 2.9487 2.18754e-18)
(4.56588 2.18048 0)
(3.36777 1.5341 -7.42086e-18)
(2.37477 1.00972 9.10701e-18)
(1.69278 0.727889 0)
(1.36984 0.588688 -6.25014e-18)
(1.19385 0.588289 1.83594e-17)
(0.778247 0.386547 2.21909e-18)
(-0.343863 -0.156446 -2.03364e-17)
(3.87856 2.1674 -1.42913e-17)
(5.57932 3.37446 1.76686e-17)
(6.116 3.56764 0)
(6.6468 3.96145 1.35195e-17)
(7.23505 4.30658 0)
(7.80369 4.64287 1.30562e-17)
(8.34162 4.89574 0)
(8.46438 4.95563 0)
(8.34736 4.82604 -5.67415e-19)
(7.98301 4.50998 -7.61764e-18)
(7.15765 3.89383 -1.44422e-17)
(5.8116 3.1168 2.84506e-18)
(4.50966 2.3266 1.05982e-17)
(3.34515 1.65731 8.41862e-18)
(2.42127 1.13211 -2.95724e-17)
(1.823 0.835212 -1.16575e-17)
(1.50067 0.72773 6.85594e-18)
(1.24067 0.718029 0)
(0.798857 0.441472 1.93906e-17)
(-0.340527 -0.164673 -2.27029e-17)
(3.76798 2.24777 1.53352e-17)
(5.48624 3.55116 -1.89631e-17)
(6.01743 3.7801 0)
(6.53268 4.15948 -3.70258e-19)
(7.10112 4.48419 -5.56564e-18)
(7.65262 4.82575 0)
(8.18802 5.08956 -1.60188e-18)
(8.31491 5.15614 3.11734e-19)
(8.20517 5.02632 1.37232e-19)
(7.85025 4.70779 4.81184e-19)
(7.04273 4.07736 0)
(5.71889 3.28112 1.1751e-17)
(4.44508 2.46989 3.17782e-19)
(3.30582 1.78087 4.62504e-18)
(2.39394 1.234 5.35752e-18)
(1.79459 0.953308 0)
(1.52444 0.817133 -1.14518e-17)
(1.34246 0.82337 2.25219e-17)
(0.84519 0.520057 -2.38962e-17)
(-0.343707 -0.180577 4.99921e-17)
(3.61573 2.29279 0)
(5.34911 3.63449 0)
(5.87951 3.86611 -1.03637e-17)
(6.3848 4.26994 0)
(6.95839 4.62547 0)
(7.50558 4.98861 1.48111e-17)
(8.04006 5.26629 -1.70558e-18)
(8.17015 5.33971 8.42264e-19)
(8.06656 5.2102 3.98513e-19)
(7.71886 4.89192 0)
(6.92544 4.25129 -2.4972e-18)
(5.62017 3.43949 -9.76114e-18)
(4.37465 2.61049 -1.19949e-17)
(3.26531 1.90132 -4.86913e-18)
(2.42889 1.36005 5.99486e-18)
(1.90909 1.08001 -1.39667e-17)
(1.63007 0.96884 2.50835e-17)
(1.36233 0.948416 1.85698e-19)
(0.814669 0.560355 -2.29043e-17)
(-0.36743 -0.205056 -3.46503e-18)
(3.51826 2.35671 0)
(5.25804 3.78084 -1.40107e-17)
(5.77964 4.0512 1.14462e-17)
(6.27399 4.44442 0)
(6.83138 4.77905 0)
(7.36365 5.14208 -3.16853e-17)
(7.89597 5.42711 0)
(8.0288 5.50637 0)
(7.93033 5.37805 2.34235e-21)
(7.58847 5.06137 1.8645e-18)
(6.80762 4.41425 -2.02944e-17)
(5.51912 3.58939 0)
(4.2994 2.74421 -1.33333e-17)
(3.21387 2.01728 2.20846e-19)
(2.38194 1.46711 -1.95418e-17)
(1.85375 1.19611 7.52481e-18)
(1.62151 1.06608 1.17022e-19)
(1.40955 1.04544 -2.69552e-17)
(0.764725 0.578832 1.21628e-17)
(-0.408518 -0.239337 3.7027e-18)
(3.39336 2.39993 0)
(5.13679 3.85616 -1.5423e-17)
(5.65786 4.12974 1.1912e-17)
(6.14082 4.54485 2.62745e-17)
(6.70171 4.9051 5.9104e-18)
(7.22848 5.28215 -3.67003e-18)
(7.75731 5.5753 2.96338e-18)
(7.89129 5.65888 -8.11952e-18)
(7.79609 5.5306 -2.51016e-21)
(7.45774 5.21568 1.11192e-17)
(6.68878 4.56484 1.69442e-17)
(5.41899 3.73174 3.30857e-18)
(4.22296 2.8741 1.91934e-17)
(3.16044 2.13295 1.18985e-17)
(2.39528 1.59186 1.4039e-17)
(1.93783 1.34546 -8.34501e-18)
(1.69589 1.22506 -9.94072e-18)
(1.41507 1.13908 1.17658e-17)
(0.698354 0.57153 -6.70208e-18)
(-0.478375 -0.28705 1.21869e-17)
(3.31218 2.46012 2.05995e-17)
(5.05601 3.98248 2.45899e-17)
(5.56436 4.28945 6.2148e-18)
(6.04054 4.69886 4.92109e-20)
(6.58813 5.04189 -1.99486e-17)
(7.10136 5.41699 9.009e-18)
(7.62561 5.71278 -3.17031e-18)
(7.75933 5.79912 6.29177e-20)
(7.66637 5.6709 -5.91729e-19)
(7.33102 5.35727 -1.26655e-17)
(6.57416 4.70417 1.02053e-18)
(5.32231 3.8649 0)
(4.14725 2.99835 0)
(3.10493 2.24819 -6.2181e-18)
(2.34027 1.7067 -2.3027e-17)
(1.85775 1.45065 1.80261e-17)
(1.65772 1.30565 1.09354e-17)
(1.40978 1.21706 0)
(0.622871 0.548206 2.19524e-17)
(-0.516481 -0.404357 -1.32609e-17)
(3.21036 2.502 -1.08454e-17)
(4.95092 4.05132 9.06138e-18)
(5.46144 4.36019 -1.37278e-17)
(5.92502 4.78851 -1.5672e-17)
(6.47395 5.15595 -7.32397e-18)
(6.98207 5.54323 2.62496e-18)
(7.50142 5.84349 0)
(7.63491 5.9312 9.88414e-18)
(7.54357 5.80175 -4.90229e-19)
(7.21003 5.48854 0)
(6.46427 4.83347 0)
(5.2308 3.9902 2.32446e-18)
(4.07423 3.11862 3.16722e-18)
(3.04655 2.36453 -6.70942e-18)
(2.33101 1.8441 1.65368e-17)
(1.90415 1.61332 -1.93718e-17)
(1.68341 1.44698 -2.33208e-17)
(1.37654 1.21799 1.86799e-17)
(0.514399 0.486136 -8.05385e-18)
(-0.427654 -0.531867 4.72727e-18)
(3.14627 2.56126 1.18556e-17)
(4.88605 4.16354 0)
(5.37963 4.49913 0)
(5.83765 4.92405 -5.2111e-18)
(6.37692 5.2787 4.21251e-18)
(6.8745 5.66665 -1.96406e-19)
(7.38928 5.96912 -1.08891e-17)
(7.522 6.05788 -1.15904e-17)
(7.43143 5.9272 7.64639e-19)
(7.09915 5.61341 -1.24058e-18)
(6.36309 4.95551 2.95523e-18)
(5.14608 4.10794 -2.03059e-17)
(4.00492 3.23357 -2.07115e-17)
(2.99259 2.48274 -3.56995e-18)
(2.26498 1.98078 0)
(1.77968 1.73731 -1.72601e-19)
(1.57411 1.53719 1.2577e-17)
(1.28901 1.23446 -2.11736e-17)
(0.49481 0.248702 1.71564e-17)
(-0.355056 -0.555561 1.53916e-17)
(3.07072 2.6015 -2.53498e-17)
(4.79803 4.22705 -1.04402e-17)
(5.29353 4.56289 7.55778e-20)
(5.73938 5.00359 6.06938e-18)
(6.28111 5.38305 0)
(6.77564 5.78546 2.15281e-17)
(7.28616 6.09409 1.35072e-17)
(7.41727 6.18422 -1.2866e-18)
(7.32623 6.05185 -6.77612e-20)
(6.99389 5.73722 -1.21643e-18)
(6.26625 5.07669 1.12676e-18)
(5.06533 4.22503 1.77862e-17)
(3.93763 3.35019 2.0083e-17)
(2.93381 2.60894 3.45455e-18)
(2.23428 2.14611 1.72745e-17)
(1.8135 1.92567 0)
(1.51174 1.69954 0)
(1.04148 1.17998 1.42805e-17)
(0.084033 0.377 -1.30066e-19)
(-0.209405 0.897344 -1.61605e-17)
(3.02485 2.66252 1.35635e-17)
(4.74694 4.32868 3.23101e-17)
(5.22176 4.68621 -4.9971e-17)
(5.66353 5.12349 3.12614e-17)
(6.19936 5.49443 -4.04945e-18)
(6.68363 5.90189 2.64916e-17)
(7.18894 6.21687 0)
(7.31784 6.31009 1.0857e-17)
(7.22543 6.17755 0)
(6.89307 5.86332 1.31733e-17)
(6.1738 5.20144 -1.78215e-18)
(4.98922 4.34641 1.99281e-18)
(3.8732 3.47276 2.31502e-17)
(2.88226 2.74947 -7.36468e-18)
(2.17093 2.33133 -8.8764e-18)
(1.65589 2.16169 0)
(1.2736 1.95631 0)
(0.583461 1.40845 0)
(0.224497 1.37071 -8.05477e-18)
(0.16661 2.47405 -4.98099e-18)
(2.97189 2.70445 0)
(4.6707 4.38643 0)
(5.1499 4.74496 1.77326e-17)
(5.57978 5.1936 -2.61958e-17)
(6.11769 5.58832 1.87244e-17)
(6.59712 6.01188 -2.43583e-17)
(7.09686 6.33657 -1.40559e-18)
(7.22117 6.4336 1.08493e-18)
(7.1269 6.3013 4.43117e-19)
(6.79482 5.98843 -1.50431e-17)
(6.08514 5.32759 2.91848e-18)
(4.91864 4.47123 1.82646e-17)
(3.81443 3.60248 -2.30764e-17)
(2.83038 2.90465 -2.50602e-17)
(2.13555 2.54934 8.49836e-18)
(1.67446 2.40153 0)
(1.19012 2.07991 1.16864e-17)
(0.742869 1.75061 1.32879e-17)
(0.432942 2.53129 -1.66644e-17)
(0.430744 2.99761 1.97597e-17)
(2.939 2.77139 0)
(4.63023 4.47948 2.49443e-17)
(5.08959 4.85564 -4.58024e-18)
(5.51568 5.3011 3.17464e-17)
(6.04791 5.68733 -1.9671e-17)
(6.51451 6.11696 0)
(7.00704 6.45056 0)
(7.1272 6.55316 0)
(7.03143 6.42275 -1.6071e-18)
(6.70042 6.11243 3.10895e-19)
(6.00143 5.45452 0)
(4.85518 4.5993 -1.80441e-17)
(3.76177 3.73722 0)
(2.79803 3.07155 1.797e-17)
(2.1246 2.77422 -1.24193e-17)
(1.6123 2.67388 -9.85287e-18)
(1.04712 2.41223 -2.30113e-17)
(0.71023 2.4609 -1.37787e-17)
(0.604928 3.12013 -2.27201e-17)
(0.612763 3.30007 1.94289e-17)
(2.90177 2.81174 -8.23704e-18)
(4.56775 4.53402 1.63972e-19)
(5.03105 4.90916 -4.7803e-18)
(5.44861 5.3672 -2.51814e-17)
(5.97825 5.7722 0)
(6.43687 6.21638 0)
(6.92134 6.5605 0)
(7.035 6.66973 -5.23269e-19)
(6.93762 6.54189 1.6172e-18)
(6.60791 6.23458 0)
(5.92062 5.58132 0)
(4.7956 4.7292 0)
(3.71441 3.87564 0)
(2.77394 3.25194 1.37861e-17)
(2.12977 3.02039 3.34987e-17)
(1.65677 2.90446 9.84598e-18)
(1.30418 2.66451 2.23702e-17)
(1.03463 2.99701 -1.97121e-17)
(0.86705 3.49524 7.51232e-18)
(0.72159 3.56788 0)
(2.87411 2.87032 8.01008e-18)
(4.53924 4.62296 -4.99442e-17)
(4.98086 5.01275 -1.45085e-17)
(5.39573 5.46921 -3.66876e-18)
(5.91597 5.86572 4.65347e-18)
(6.35926 6.31386 -3.33361e-17)
(6.83452 6.66699 2.29835e-18)
(6.94341 6.78385 1.41215e-17)
(6.84566 6.66012 0)
(6.51811 6.35659 -1.13729e-18)
(5.84253 5.70814 1.03819e-18)
(4.73885 4.85927 0)
(3.67401 4.01517 0)
(2.7761 3.43605 -1.7224e-17)
(2.18061 3.24668 3.39548e-18)
(1.6794 3.12938 -9.63714e-18)
(1.23495 3.06612 2.21783e-17)
(0.967104 3.52927 1.9149e-17)
(0.82519 3.77194 -3.31359e-17)
(0.708464 3.79607 1.74331e-17)
(2.84328 2.90206 1.49185e-17)
(4.47882 4.67093 4.6392e-17)
(4.9259 5.06522 1.77139e-17)
(5.33026 5.53446 0)
(5.84415 5.95017 0)
(6.27675 6.41081 2.5192e-17)
(6.74317 6.77367 -1.51856e-17)
(6.84692 6.89833 -1.29583e-17)
(6.74996 6.77887 -4.30274e-19)
(6.42572 6.47901 1.02227e-17)
(5.76269 5.83517 -2.11685e-17)
(4.6823 4.98953 0)
(3.64247 4.15735 0)
(2.78991 3.62596 -1.27453e-17)
(2.22194 3.49144 -1.58075e-17)
(1.75493 3.41835 0)
(1.43457 3.38439 -3.18451e-17)
(1.24476 3.83808 -5.79121e-18)
(1.10995 4.12066 3.36746e-17)
(0.861093 4.13608 -1.71334e-17)
(2.80834 2.95232 -2.80944e-17)
(4.44581 4.75854 -2.19522e-17)
(4.86486 5.1673 0)
(5.26505 5.63607 0)
(5.766 6.04293 0)
(6.18263 6.50621 0)
(6.6408 6.87717 1.61287e-17)
(6.74289 7.01053 -1.50981e-17)
(6.64882 6.8965 0)
(6.32978 6.60119 -9.01589e-18)
(5.68014 5.96115 3.84282e-17)
(4.6272 5.11882 1.71641e-18)
(3.62016 4.30025 2.62971e-18)
(2.82256 3.81468 2.1765e-17)
(2.30392 3.71076 -1.43407e-17)
(1.84406 3.61519 0)
(1.54698 3.73733 1.02257e-17)
(1.30991 4.31765 4.77694e-19)
(0.942282 4.41279 -5.49749e-18)
(0.594395 4.49692 1.04368e-17)
(2.77053 2.97569 1.32184e-17)
(4.36545 4.79394 -2.07967e-17)
(4.79282 5.21076 0)
(5.17861 5.69239 -5.77727e-18)
(5.66994 6.12132 2.21096e-17)
(6.07743 6.59851 0)
(6.52893 6.97848 0)
(6.62953 7.12015 2.71686e-17)
(6.53921 7.01139 -1.21123e-19)
(6.22671 6.72045 8.57748e-18)
(5.59317 6.08455 -1.82532e-17)
(4.57285 5.24612 1.30296e-17)
(3.60654 4.44206 0)
(2.86587 4.00205 -1.20366e-17)
(2.37579 3.93289 7.31393e-18)
(1.96843 3.89782 8.08551e-18)
(1.72128 4.10722 0)
(1.47832 4.54157 5.28851e-18)
(1.09386 4.97066 9.40123e-18)
(0.978242 5.13561 2.67581e-18)
(2.71606 3.02127 -2.47333e-17)
(4.31587 4.88028 2.95769e-17)
(4.71173 5.3086 2.25767e-17)
(5.08878 5.7873 -5.97052e-18)
(5.56716 6.20738 -3.33714e-17)
(5.96104 6.68752 0)
(6.40652 7.07537 1.24533e-17)
(6.50781 7.22506 -1.10508e-17)
(6.42263 7.12198 -8.95929e-19)
(6.11845 6.83612 -7.47963e-18)
(5.50326 6.20417 -8.05825e-19)
(4.52122 5.37034 -1.45516e-17)
(3.60011 4.57961 1.80937e-17)
(2.92045 4.18002 5.6181e-18)
(2.48558 4.13736 -1.30339e-17)
(2.10476 4.09735 1.48902e-17)
(1.92042 4.28688 0)
(1.72811 5.06213 0)
(1.43877 5.41259 2.76578e-18)
(0.50643 5.46992 -7.6576e-18)
(2.66412 3.03534 1.16899e-17)
(4.21183 4.90696 2.74982e-17)
(4.6173 5.34176 -2.1759e-17)
(4.9796 5.8343 2.17497e-17)
(5.44938 6.27907 3.17948e-17)
(5.83595 6.77473 0)
(6.27612 7.17117 -1.34006e-17)
(6.37792 7.32716 -1.317e-17)
(6.29847 7.22776 0)
(6.00425 6.94566 0)
(5.41127 6.31798 0)
(4.47219 5.48946 0)
(3.5985 4.71013 -2.06379e-17)
(2.9812 4.34417 -7.93142e-18)
(2.58253 4.31577 0)
(2.26587 4.30533 -7.37248e-18)
(2.1799 4.69938 0)
(2.24098 5.01186 -3.49029e-18)
(2.28041 4.90893 6.29589e-18)
(1.28841 4.95699 -3.53433e-18)
(2.58618 3.08306 -2.18655e-17)
(4.14408 5.00443 -1.72852e-17)
(4.51566 5.44246 -1.33626e-17)
(4.87017 5.92833 -2.0301e-17)