/*--------------------------------*- C++ -*----------------------------------*\
| =========                 |                                                 |
| \\      /  F ield         | OpenFOAM: The Open Source CFD Toolbox           |
|  \\    /   O peration     | Version:  2412                                  |
|   \\  /    A nd           | Website:  www.openfoam.com                      |
|    \\/     M anipulation  |                                                 |
\*---------------------------------------------------------------------------*/
FoamFile
{
    version     2.0;
    format      ascii;
    arch        "LSB;label=32;scalar=64";
    class       surfaceScalarField;
    location    "0.12";
    object      phi;
}
// * * * * * * * * * * * * * * * * * * * * * * * * * * * * * * * * * * * * * //

dimensions      [0 3 -1 0 0 0 0];

oriented        oriented;

internalField   nonuniform List<scalar> 
799
(
5.70251e-05
0.000114049
0.000171071
0.000228089
0.000285101
0.000342107
0.000399104
0.000456092
0.000513069
0.000570034
0.000626985
0.000683922
0.000740842
0.000797745
0.000854629
0.000911492
0.000968334
0.00102515
0.00108195
0.00113872
0.00119546
0.00125217
0.00130885
0.0013655
0.00142212
0.00147871
0.00153526
0.00159177
0.00164825
0.00170468
0.00176108
0.00181743
0.00187374
0.00193
0.00198622
0.00204239
0.00209851
0.00215458
0.0022106
0.00226656
0.00232247
0.00237833
0.00243412
0.00248986
0.00254554
0.00260115
0.0026567
0.00271219
0.00276761
0.00282296
0.00287824
0.00293345
0.00298859
0.00304366
0.00309865
0.00315357
0.0032084
0.00326316
0.00331784
0.00337243
0.00342694
0.00348137
0.00353571
0.00358996
0.00364412
0.00369819
0.00375217
0.00380605
0.00385983
0.00391352
0.00396711
0.0040206
0.00407399
0.00412727
0.00418045
0.00423352
0.00428648
0.00433934
0.00439208
0.00444471
0.00449722
0.00454962
0.0046019
0.00465406
0.00470609
0.00475801
0.0048098
0.00486146
0.004913
0.00496441
0.00501568
0.00506683
0.00511783
0.00516871
0.00521944
0.00527003
0.00532049
0.0053708
0.00542096
0.00547098
0.00552085
0.00557057
0.00562013
0.00566955
0.0057188
0.00576791
0.00581685
0.00586563
0.00591424
0.00596269
0.00601098
0.0060591
0.00610704
0.00615482
0.00620241
0.00624984
0.00629708
0.00634415
0.00639103
0.00643773
0.00648424
0.00653057
0.0065767
0.00662265
0.0066684
0.00671395
0.00675931
0.00680446
0.00684941
0.00689416
0.0069387
0.00698304
0.00702716
0.00707107
0.00711477
0.00715824
0.0072015
0.00724454
0.00728735
0.00732994
0.0073723
0.00741442
0.00745632
0.00749798
0.0075394
0.00758058
0.00762152
0.00766222
0.00770267
0.00774287
0.00778281
0.00782251
0.00786194
0.00790112
0.00794004
0.00797869
0.00801707
0.00805519
0.00809303
0.0081306
0.00816789
0.0082049
0.00824163
0.00827808
0.00831423
0.0083501
0.00838567
0.00842095
0.00845593
0.00849061
0.00852498
0.00855904
0.0085928
0.00862624
0.00865937
0.00869218
0.00872466
0.00875682
0.00878865
0.00882016
0.00885133
0.00888216
0.00891265
0.0089428
0.0089726
0.00900205
0.00903115
0.00905989
0.00908827
0.00911629
0.00914395
0.00917123
0.00919815
0.00922468
0.00925084
0.00927661
0.009302
0.009327
0.0093516
0.0093758
0.00939961
0.00942301
0.009446
0.00946857
0.00949074
0.00951248
0.0095338
0.00955469
0.00957515
0.00959518
0.00961476
0.00963391
0.0096526
0.00967085
0.00968864
0.00970596
0.00972283
0.00973923
0.00975515
0.0097706
0.00978557
0.00980005
0.00981405
0.00982754
0.00984055
0.00985304
0.00986503
0.00987651
0.00988747
0.00989791
0.00990782
0.0099172
0.00992605
0.00993435
0.00994211
0.00994932
0.00995597
0.00996207
0.00996759
0.00997255
0.00997693
0.00998073
0.00998394
0.00998657
0.00998859
0.00999001
0.00999083
0.00999103
0.00999062
0.00998958
0.00998791
0.0099856
0.00998265
0.00997906
0.00997482
0.00996991
0.00996435
0.00995811
0.0099512
0.00994361
0.00993532
0.00992635
0.00991668
0.0099063
0.0098952
0.00988339
0.00987086
0.00985759
0.00984359
0.00982885
0.00981335
0.0097971
0.00978009
0.00976231
0.00974375
0.00972441
0.00970428
0.00968336
0.00966163
0.0096391
0.00961576
0.00959159
0.00956659
0.00954076
0.00951409
0.00948657
0.00945819
0.00942896
0.00939885
0.00936787
0.00933601
0.00930326
0.00926961
0.00923507
0.00919961
0.00916324
0.00912595
0.00908773
0.00904857
0.00900848
0.00896743
0.00892543
0.00888247
0.00883854
0.00879364
0.00874776
0.0087009
0.00865304
0.00860419
0.00855433
0.00850346
0.00845158
0.00839867
0.00834474
0.00828978
0.00823378
0.00817674
0.00811865
0.00805951
0.00799932
0.00793806
0.00787574
0.00781235
0.00774789
0.00768236
0.00761574
0.00754804
0.00747925
0.00740938
0.00733842
0.00726636
0.00719321
0.00711896
0.00704362
0.00696718
0.00688964
0.006811
0.00673126
0.00665043
0.0065685
0.00648547
0.00640136
0.00631614
0.00622985
0.00614246
0.006054
0.00596445
0.00587384
0.00578216
0.00568941
0.00559561
0.00550076
0.00540487
0.00530794
0.00520999
0.00511103
0.00501105
0.00491008
0.00480813
0.0047052
0.00460131
0.00449647
0.00439069
0.00428399
0.00417639
0.00406789
0.00395852
0.00384829
0.00373722
0.00362533
0.00351263
0.00339915
0.0032849
0.00316991
0.00305419
0.00293777
0.00282068
0.00270293
0.00258455
0.00246556
0.00234598
0.00222585
0.00210519
0.00198403
0.00186238
0.00174029
0.00161778
0.00149487
0.00137159
0.00124798
0.00112407
0.000999872
0.000875431
0.000750774
0.00062593
0.000500931
0.000375807
0.00025059
0.000125311
1.34607e-10
-0.000125311
-0.00025059
-0.000375807
-0.000500931
-0.000625929
-0.000750773
-0.00087543
-0.000999871
-0.00112406
-0.00124798
-0.00137159
-0.00149486
-0.00161777
-0.00174029
-0.00186238
-0.00198402
-0.00210519
-0.00222585
-0.00234598
-0.00246555
-0.00258454
-0.00270292
-0.00282067
-0.00293776
-0.00305418
-0.0031699
-0.00328489
-0.00339913
-0.00351262
-0.00362531
-0.00373721
-0.00384828
-0.00395851
-0.00406788
-0.00417637
-0.00428397
-0.00439067
-0.00449645
-0.00460129
-0.00470518
-0.00480811
-0.00491006
-0.00501103
-0.005111
-0.00520997
-0.00530792
-0.00540484
-0.00550074
-0.00559559
-0.00568939
-0.00578213
-0.00587381
-0.00596443
-0.00605397
-0.00614244
-0.00622982
-0.00631612
-0.00640133
-0.00648545
-0.00656847
-0.0066504
-0.00673124
-0.00681097
-0.00688961
-0.00696715
-0.00704359
-0.00711894
-0.00719318
-0.00726634
-0.00733839
-0.00740936
-0.00747923
-0.00754801
-0.00761571
-0.00768233
-0.00774787
-0.00781233
-0.00787572
-0.00793804
-0.0079993
-0.00805949
-0.00811863
-0.00817672
-0.00823376
-0.00828976
-0.00834472
-0.00839865
-0.00845156
-0.00850344
-0.00855431
-0.00860417
-0.00865302
-0.00870088
-0.00874775
-0.00879363
-0.00883853
-0.00888246
-0.00892542
-0.00896742
-0.00900846
-0.00904856
-0.00908772
-0.00912594
-0.00916323
-0.0091996
-0.00923506
-0.0092696
-0.00930325
-0.009336
-0.00936786
-0.00939884
-0.00942895
-0.00945819
-0.00948656
-0.00951408
-0.00954075
-0.00956659
-0.00959158
-0.00961575
-0.0096391
-0.00966163
-0.00968335
-0.00970428
-0.0097244
-0.00974374
-0.0097623
-0.00978008
-0.0097971
-0.00981335
-0.00982884
-0.00984359
-0.00985759
-0.00987086
-0.00988339
-0.0098952
-0.00990629
-0.00991667
-0.00992635
-0.00993532
-0.00994361
-0.0099512
-0.00995811
-0.00996435
-0.00996991
-0.00997482
-0.00997906
-0.00998265
-0.0099856
-0.00998791
-0.00998958
-0.00999062
-0.00999103
-0.00999083
-0.00999001
-0.00998859
-0.00998657
-0.00998394
-0.00998073
-0.00997693
-0.00997255
-0.00996759
-0.00996207
-0.00995597
-0.00994932
-0.00994211
-0.00993435
-0.00992605
-0.0099172
-0.00990782
-0.00989791
-0.00988747
-0.00987651
-0.00986503
-0.00985304
-0.00984054
-0.00982754
-0.00981404
-0.00980005
-0.00978557
-0.0097706
-0.00975515
-0.00973923
-0.00972283
-0.00970596
-0.00968863
-0.00967084
-0.0096526
-0.0096339
-0.00961476
-0.00959517
-0.00957515
-0.00955469
-0.00953379
-0.00951248
-0.00949073
-0.00946857
-0.00944599
-0.009423
-0.0093996
-0.0093758
-0.00935159
-0.00932699
-0.00930199
-0.00927661
-0.00925083
-0.00922468
-0.00919814
-0.00917123
-0.00914394
-0.00911629
-0.00908827
-0.00905988
-0.00903114
-0.00900204
-0.00897259
-0.00894279
-0.00891264
-0.00888215
-0.00885132
-0.00882015
-0.00878865
-0.00875681
-0.00872465
-0.00869217
-0.00865936
-0.00862623
-0.00859279
-0.00855903
-0.00852497
-0.0084906
-0.00845592
-0.00842094
-0.00838566
-0.00835009
-0.00831422
-0.00827807
-0.00824162
-0.00820489
-0.00816788
-0.00813059
-0.00809302
-0.00805518
-0.00801706
-0.00797868
-0.00794002
-0.00790111
-0.00786193
-0.00782249
-0.0077828
-0.00774285
-0.00770266
-0.00766221
-0.00762151
-0.00758057
-0.00753939
-0.00749797
-0.00745631
-0.00741441
-0.00737228
-0.00732993
-0.00728734
-0.00724453
-0.00720149
-0.00715823
-0.00711475
-0.00707106
-0.00702715
-0.00698303
-0.00693869
-0.00689415
-0.0068494
-0.00680445
-0.00675929
-0.00671394
-0.00666839
-0.00662264
-0.00657669
-0.00653056
-0.00648423
-0.00643772
-0.00639102
-0.00634414
-0.00629707
-0.00624983
-0.0062024
-0.0061548
-0.00610703
-0.00605909
-0.00601097
-0.00596268
-0.00591423
-0.00586562
-0.00581684
-0.0057679
-0.0057188
-0.00566954
-0.00562012
-0.00557056
-0.00552084
-0.00547097
-0.00542095
-0.00537079
-0.00532048
-0.00527003
-0.00521943
-0.0051687
-0.00511783
-0.00506682
-0.00501567
-0.0049644
-0.00491299
-0.00486146
-0.00480979
-0.004758
-0.00470609
-0.00465405
-0.00460189
-0.00454961
-0.00449721
-0.0044447
-0.00439207
-0.00433933
-0.00428648
-0.00423351
-0.00418044
-0.00412727
-0.00407398
-0.0040206
-0.00396711
-0.00391352
-0.00385983
-0.00380604
-0.00375216
-0.00369818
-0.00364412
-0.00358995
-0.0035357
-0.00348137
-0.00342694
-0.00337243
-0.00331783
-0.00326316
-0.0032084
-0.00315356
-0.00309865
-0.00304366
-0.00298859
-0.00293345
-0.00287824
-0.00282295
-0.0027676
-0.00271218
-0.0026567
-0.00260115
-0.00254553
-0.00248986
-0.00243412
-0.00237832
-0.00232247
-0.00226656
-0.0022106
-0.00215458
-0.00209851
-0.00204239
-0.00198622
-0.00193
-0.00187374
-0.00181743
-0.00176108
-0.00170468
-0.00164825
-0.00159177
-0.00153526
-0.00147871
-0.00142212
-0.0013655
-0.00130885
-0.00125217
-0.00119546
-0.00113871
-0.00108195
-0.00102515
-0.000968333
-0.000911492
-0.000854628
-0.000797745
-0.000740842
-0.000683922
-0.000626985
-0.000570034
-0.000513069
-0.000456092
-0.000399104
-0.000342107
-0.000285102
-0.000228089
-0.000171072
-0.00011405
-5.70257e-05
)
;

boundaryField
{
    left
    {
        type            calculated;
        value           uniform 0;
    }
    right
    {
        type            calculated;
        value           uniform 0;
    }
    frontBackUpDown
    {
        type            empty;
    }
}


// ************************************************************************* //
