/*--------------------------------*- C++ -*----------------------------------*\
| =========                 |                                                 |
| \\      /  F ield         | OpenFOAM: The Open Source CFD Toolbox           |
|  \\    /   O peration     | Version:  2412                                  |
|   \\  /    A nd           | Website:  www.openfoam.com                      |
|    \\/     M anipulation  |                                                 |
\*---------------------------------------------------------------------------*/
FoamFile
{
    version     2.0;
    format      ascii;
    arch        "LSB;label=32;scalar=64";
    class       volVectorField;
    location    "0.12";
    object      U_0;
}
// * * * * * * * * * * * * * * * * * * * * * * * * * * * * * * * * * * * * * //

dimensions      [0 1 -1 0 0 0 0];

internalField   nonuniform List<vector> 
800
(
(0.0028545 0 0)
(0.00856354 0 0)
(0.0142724 0 0)
(0.0199809 0 0)
(0.0256889 0 0)
(0.0313964 0 0)
(0.0371031 0 0)
(0.0428088 0 0)
(0.0485136 0 0)
(0.0542172 0 0)
(0.0599196 0 0)
(0.0656205 0 0)
(0.0713198 0 0)
(0.0770175 0 0)
(0.0827133 0 0)
(0.0884071 0 0)
(0.0940988 0 0)
(0.0997883 0 0)
(0.105475 0 0)
(0.11116 0 0)
(0.116842 0 0)
(0.122521 0 0)
(0.128197 0 0)
(0.13387 0 0)
(0.13954 0 0)
(0.145207 0 0)
(0.15087 0 0)
(0.156529 0 0)
(0.162185 0 0)
(0.167837 0 0)
(0.173485 0 0)
(0.179128 0 0)
(0.184768 0 0)
(0.190403 0 0)
(0.196033 0 0)
(0.201658 0 0)
(0.207279 0 0)
(0.212895 0 0)
(0.218505 0 0)
(0.22411 0 0)
(0.22971 0 0)
(0.235304 0 0)
(0.240893 0 0)
(0.246475 0 0)
(0.252052 0 0)
(0.257622 0 0)
(0.263186 0 0)
(0.268744 0 0)
(0.274295 0 0)
(0.27984 0 0)
(0.285377 0 0)
(0.290908 0 0)
(0.296431 0 0)
(0.301947 0 0)
(0.307456 0 0)
(0.312956 0 0)
(0.31845 0 0)
(0.323935 0 0)
(0.329412 0 0)
(0.334881 0 0)
(0.340342 0 0)
(0.345794 0 0)
(0.351238 0 0)
(0.356673 0 0)
(0.362098 0 0)
(0.367515 0 0)
(0.372923 0 0)
(0.378321 0 0)
(0.383709 0 0)
(0.389088 0 0)
(0.394457 0 0)
(0.399816 0 0)
(0.405165 0 0)
(0.410503 0 0)
(0.415831 0 0)
(0.421148 0 0)
(0.426455 0 0)
(0.43175 0 0)
(0.437035 0 0)
(0.442308 0 0)
(0.447569 0 0)
(0.452819 0 0)
(0.458058 0 0)
(0.463284 0 0)
(0.468498 0 0)
(0.4737 0 0)
(0.47889 0 0)
(0.484067 0 0)
(0.489231 0 0)
(0.494382 0 0)
(0.49952 0 0)
(0.504645 0 0)
(0.509757 0 0)
(0.514854 0 0)
(0.519939 0 0)
(0.525009 0 0)
(0.530065 0 0)
(0.535106 0 0)
(0.540134 0 0)
(0.545146 0 0)
(0.550144 0 0)
(0.555127 0 0)
(0.560094 0 0)
(0.565047 0 0)
(0.569983 0 0)
(0.574904 0 0)
(0.579809 0 0)
(0.584698 0 0)
(0.589571 0 0)
(0.594427 0 0)
(0.599267 0 0)
(0.60409 0 0)
(0.608895 0 0)
(0.613684 0 0)
(0.618455 0 0)
(0.623208 0 0)
(0.627944 0 0)
(0.632662 0 0)
(0.637361 0 0)
(0.642043 0 0)
(0.646705 0 0)
(0.651349 0 0)
(0.655974 0 0)
(0.66058 0 0)
(0.665166 0 0)
(0.669733 0 0)
(0.67428 0 0)
(0.678807 0 0)
(0.683314 0 0)
(0.6878 0 0)
(0.692266 0 0)
(0.69671 0 0)
(0.701134 0 0)
(0.705537 0 0)
(0.709918 0 0)
(0.714277 0 0)
(0.718615 0 0)
(0.72293 0 0)
(0.727223 0 0)
(0.731494 0 0)
(0.735741 0 0)
(0.739966 0 0)
(0.744167 0 0)
(0.748345 0 0)
(0.752499 0 0)
(0.756629 0 0)
(0.760735 0 0)
(0.764816 0 0)
(0.768873 0 0)
(0.772905 0 0)
(0.776912 0 0)
(0.780893 0 0)
(0.784849 0 0)
(0.788778 0 0)
(0.792682 0 0)
(0.796559 0 0)
(0.80041 0 0)
(0.804233 0 0)
(0.80803 0 0)
(0.811799 0 0)
(0.81554 0 0)
(0.819254 0 0)
(0.822939 0 0)
(0.826596 0 0)
(0.830224 0 0)
(0.833823 0 0)
(0.837392 0 0)
(0.840933 0 0)
(0.844443 0 0)
(0.847923 0 0)
(0.851373 0 0)
(0.854792 0 0)
(0.85818 0 0)
(0.861537 0 0)
(0.864862 0 0)
(0.868156 0 0)
(0.871417 0 0)
(0.874646 0 0)
(0.877842 0 0)
(0.881005 0 0)
(0.884135 0 0)
(0.887231 0 0)
(0.890293 0 0)
(0.89332 0 0)
(0.896314 0 0)
(0.899272 0 0)
(0.902195 0 0)
(0.905082 0 0)
(0.907934 0 0)
(0.910749 0 0)
(0.913528 0 0)
(0.91627 0 0)
(0.918974 0 0)
(0.921641 0 0)
(0.92427 0 0)
(0.926861 0 0)
(0.929413 0 0)
(0.931927 0 0)
(0.9344 0 0)
(0.936835 0 0)
(0.939229 0 0)
(0.941583 0 0)
(0.943896 0 0)
(0.946167 0 0)
(0.948398 0 0)
(0.950586 0 0)
(0.952732 0 0)
(0.954836 0 0)
(0.956896 0 0)
(0.958913 0 0)
(0.960886 0 0)
(0.962815 0 0)
(0.964699 0 0)
(0.966538 0 0)
(0.968331 0 0)
(0.970079 0 0)
(0.971781 0 0)
(0.973435 0 0)
(0.975043 0 0)
(0.976603 0 0)
(0.978115 0 0)
(0.979579 0 0)
(0.980993 0 0)
(0.982359 0 0)
(0.983674 0 0)
(0.98494 0 0)
(0.986155 0 0)
(0.987318 0 0)
(0.98843 0 0)
(0.98949 0 0)
(0.990498 0 0)
(0.991452 0 0)
(0.992353 0 0)
(0.993201 0 0)
(0.993993 0 0)
(0.994731 0 0)
(0.995413 0 0)
(0.99604 0 0)
(0.99661 0 0)
(0.997123 0 0)
(0.997578 0 0)
(0.997976 0 0)
(0.998315 0 0)
(0.998595 0 0)
(0.998816 0 0)
(0.998976 0 0)
(0.999076 0 0)
(0.999115 0 0)
(0.999092 0 0)
(0.999007 0 0)
(0.998859 0 0)
(0.998648 0 0)
(0.998373 0 0)
(0.998033 0 0)
(0.997628 0 0)
(0.997158 0 0)
(0.996622 0 0)
(0.996019 0 0)
(0.995348 0 0)
(0.994609 0 0)
(0.993802 0 0)
(0.992926 0 0)
(0.99198 0 0)
(0.990964 0 0)
(0.989877 0 0)
(0.988718 0 0)
(0.987487 0 0)
(0.986183 0 0)
(0.984806 0 0)
(0.983354 0 0)
(0.981828 0 0)
(0.980227 0 0)
(0.978549 0 0)
(0.976796 0 0)
(0.974964 0 0)
(0.973055 0 0)
(0.971068 0 0)
(0.969001 0 0)
(0.966854 0 0)
(0.964627 0 0)
(0.962319 0 0)
(0.959928 0 0)
(0.957456 0 0)
(0.9549 0 0)
(0.952261 0 0)
(0.949537 0 0)
(0.946727 0 0)
(0.943832 0 0)
(0.940851 0 0)
(0.937782 0 0)
(0.934626 0 0)
(0.931381 0 0)
(0.928047 0 0)
(0.924624 0 0)
(0.92111 0 0)
(0.917504 0 0)
(0.913807 0 0)
(0.910018 0 0)
(0.906135 0 0)
(0.902159 0 0)
(0.898088 0 0)
(0.893923 0 0)
(0.889662 0 0)
(0.885304 0 0)
(0.88085 0 0)
(0.876298 0 0)
(0.871648 0 0)
(0.8669 0 0)
(0.862052 0 0)
(0.857104 0 0)
(0.852056 0 0)
(0.846906 0 0)
(0.841655 0 0)
(0.836303 0 0)
(0.830847 0 0)
(0.825288 0 0)
(0.819626 0 0)
(0.813859 0 0)
(0.807988 0 0)
(0.802012 0 0)
(0.79593 0 0)
(0.789742 0 0)
(0.783448 0 0)
(0.777047 0 0)
(0.770539 0 0)
(0.763924 0 0)
(0.757201 0 0)
(0.75037 0 0)
(0.74343 0 0)
(0.736382 0 0)
(0.729226 0 0)
(0.72196 0 0)
(0.714586 0 0)
(0.707102 0 0)
(0.699509 0 0)
(0.691806 0 0)
(0.683995 0 0)
(0.676074 0 0)
(0.668043 0 0)
(0.659904 0 0)
(0.651655 0 0)
(0.643298 0 0)
(0.634832 0 0)
(0.626257 0 0)
(0.617575 0 0)
(0.608784 0 0)
(0.599887 0 0)
(0.590882 0 0)
(0.581771 0 0)
(0.572554 0 0)
(0.563232 0 0)
(0.553806 0 0)
(0.544275 0 0)
(0.534642 0 0)
(0.524906 0 0)
(0.515068 0 0)
(0.50513 0 0)
(0.495093 0 0)
(0.484957 0 0)
(0.474724 0 0)
(0.464395 0 0)
(0.453971 0 0)
(0.443454 0 0)
(0.432844 0 0)
(0.422144 0 0)
(0.411354 0 0)
(0.400477 0 0)
(0.389514 0 0)
(0.378466 0 0)
(0.367336 0 0)
(0.356125 0 0)
(0.344835 0 0)
(0.333469 0 0)
(0.322027 0 0)
(0.310513 0 0)
(0.298928 0 0)
(0.287275 0 0)
(0.275556 0 0)
(0.263773 0 0)
(0.251928 0 0)
(0.240025 0 0)
(0.228065 0 0)
(0.216051 0 0)
(0.203985 0 0)
(0.191872 0 0)
(0.179712 0 0)
(0.167509 0 0)
(0.155265 0 0)
(0.142984 0 0)
(0.130668 0 0)
(0.11832 0 0)
(0.105944 0 0)
(0.0935413 0 0)
(0.0811157 0 0)
(0.0686703 0 0)
(0.0562079 0 0)
(0.0437317 0 0)
(0.0312446 0 0)
(0.0187499 0 0)
(0.00625048 0 0)
(-0.00625046 0 0)
(-0.0187498 0 0)
(-0.0312446 0 0)
(-0.0437316 0 0)
(-0.0562078 0 0)
(-0.0686702 0 0)
(-0.0811156 0 0)
(-0.0935411 0 0)
(-0.105944 0 0)
(-0.11832 0 0)
(-0.130668 0 0)
(-0.142984 0 0)
(-0.155265 0 0)
(-0.167508 0 0)
(-0.179711 0 0)
(-0.191871 0 0)
(-0.203985 0 0)
(-0.21605 0 0)
(-0.228064 0 0)
(-0.240024 0 0)
(-0.251927 0 0)
(-0.263772 0 0)
(-0.275555 0 0)
(-0.287274 0 0)
(-0.298927 0 0)
(-0.310512 0 0)
(-0.322026 0 0)
(-0.333467 0 0)
(-0.344834 0 0)
(-0.356124 0 0)
(-0.367334 0 0)
(-0.378465 0 0)
(-0.389512 0 0)
(-0.400475 0 0)
(-0.411353 0 0)
(-0.422142 0 0)
(-0.432842 0 0)
(-0.443452 0 0)
(-0.453969 0 0)
(-0.464393 0 0)
(-0.474722 0 0)
(-0.484955 0 0)
(-0.495091 0 0)
(-0.505128 0 0)
(-0.515066 0 0)
(-0.524903 0 0)
(-0.534639 0 0)
(-0.544273 0 0)
(-0.553803 0 0)
(-0.56323 0 0)
(-0.572552 0 0)
(-0.581769 0 0)
(-0.59088 0 0)
(-0.599884 0 0)
(-0.608782 0 0)
(-0.617572 0 0)
(-0.626255 0 0)
(-0.634829 0 0)
(-0.643295 0 0)
(-0.651653 0 0)
(-0.659901 0 0)
(-0.668041 0 0)
(-0.676071 0 0)
(-0.683992 0 0)
(-0.691804 0 0)
(-0.699506 0 0)
(-0.707099 0 0)
(-0.714583 0 0)
(-0.721958 0 0)
(-0.729223 0 0)
(-0.73638 0 0)
(-0.743428 0 0)
(-0.750367 0 0)
(-0.757198 0 0)
(-0.763921 0 0)
(-0.770537 0 0)
(-0.777045 0 0)
(-0.783445 0 0)
(-0.78974 0 0)
(-0.795927 0 0)
(-0.802009 0 0)
(-0.807986 0 0)
(-0.813857 0 0)
(-0.819624 0 0)
(-0.825286 0 0)
(-0.830845 0 0)
(-0.836301 0 0)
(-0.841654 0 0)
(-0.846904 0 0)
(-0.852054 0 0)
(-0.857102 0 0)
(-0.86205 0 0)
(-0.866898 0 0)
(-0.871647 0 0)
(-0.876297 0 0)
(-0.880848 0 0)
(-0.885303 0 0)
(-0.88966 0 0)
(-0.893922 0 0)
(-0.898087 0 0)
(-0.902158 0 0)
(-0.906134 0 0)
(-0.910017 0 0)
(-0.913806 0 0)
(-0.917503 0 0)
(-0.921108 0 0)
(-0.924623 0 0)
(-0.928046 0 0)
(-0.93138 0 0)
(-0.934625 0 0)
(-0.937782 0 0)
(-0.94085 0 0)
(-0.943832 0 0)
(-0.946727 0 0)
(-0.949536 0 0)
(-0.95226 0 0)
(-0.954899 0 0)
(-0.957455 0 0)
(-0.959928 0 0)
(-0.962318 0 0)
(-0.964626 0 0)
(-0.966854 0 0)
(-0.969 0 0)
(-0.971067 0 0)
(-0.973055 0 0)
(-0.974964 0 0)
(-0.976795 0 0)
(-0.978549 0 0)
(-0.980227 0 0)
(-0.981828 0 0)
(-0.983354 0 0)
(-0.984805 0 0)
(-0.986183 0 0)
(-0.987486 0 0)
(-0.988718 0 0)
(-0.989876 0 0)
(-0.990964 0 0)
(-0.99198 0 0)
(-0.992926 0 0)
(-0.993802 0 0)
(-0.994609 0 0)
(-0.995348 0 0)
(-0.996018 0 0)
(-0.996622 0 0)
(-0.997158 0 0)
(-0.997628 0 0)
(-0.998033 0 0)
(-0.998373 0 0)
(-0.998648 0 0)
(-0.998859 0 0)
(-0.999007 0 0)
(-0.999092 0 0)
(-0.999115 0 0)
(-0.999076 0 0)
(-0.998976 0 0)
(-0.998816 0 0)
(-0.998595 0 0)
(-0.998315 0 0)
(-0.997976 0 0)
(-0.997578 0 0)
(-0.997123 0 0)
(-0.99661 0 0)
(-0.99604 0 0)
(-0.995413 0 0)
(-0.994731 0 0)
(-0.993993 0 0)
(-0.993201 0 0)
(-0.992353 0 0)
(-0.991452 0 0)
(-0.990498 0 0)
(-0.98949 0 0)
(-0.98843 0 0)
(-0.987318 0 0)
(-0.986155 0 0)
(-0.98494 0 0)
(-0.983674 0 0)
(-0.982359 0 0)
(-0.980993 0 0)
(-0.979578 0 0)
(-0.978115 0 0)
(-0.976603 0 0)
(-0.975043 0 0)
(-0.973435 0 0)
(-0.97178 0 0)
(-0.970079 0 0)
(-0.968331 0 0)
(-0.966538 0 0)
(-0.964698 0 0)
(-0.962814 0 0)
(-0.960885 0 0)
(-0.958912 0 0)
(-0.956895 0 0)
(-0.954835 0 0)
(-0.952732 0 0)
(-0.950586 0 0)
(-0.948397 0 0)
(-0.946167 0 0)
(-0.943895 0 0)
(-0.941582 0 0)
(-0.939228 0 0)
(-0.936834 0 0)
(-0.9344 0 0)
(-0.931926 0 0)
(-0.929413 0 0)
(-0.92686 0 0)
(-0.92427 0 0)
(-0.92164 0 0)
(-0.918973 0 0)
(-0.916269 0 0)
(-0.913527 0 0)
(-0.910748 0 0)
(-0.907933 0 0)
(-0.905081 0 0)
(-0.902194 0 0)
(-0.899271 0 0)
(-0.896313 0 0)
(-0.89332 0 0)
(-0.890292 0 0)
(-0.88723 0 0)
(-0.884134 0 0)
(-0.881004 0 0)
(-0.877841 0 0)
(-0.874645 0 0)
(-0.871416 0 0)
(-0.868155 0 0)
(-0.864861 0 0)
(-0.861536 0 0)
(-0.858179 0 0)
(-0.854791 0 0)
(-0.851372 0 0)
(-0.847922 0 0)
(-0.844442 0 0)
(-0.840932 0 0)
(-0.837391 0 0)
(-0.833822 0 0)
(-0.830223 0 0)
(-0.826595 0 0)
(-0.822938 0 0)
(-0.819253 0 0)
(-0.815539 0 0)
(-0.811798 0 0)
(-0.808029 0 0)
(-0.804232 0 0)
(-0.800409 0 0)
(-0.796558 0 0)
(-0.792681 0 0)
(-0.788777 0 0)
(-0.784847 0 0)
(-0.780892 0 0)
(-0.77691 0 0)
(-0.772904 0 0)
(-0.768872 0 0)
(-0.764815 0 0)
(-0.760734 0 0)
(-0.756628 0 0)
(-0.752498 0 0)
(-0.748344 0 0)
(-0.744166 0 0)
(-0.739964 0 0)
(-0.73574 0 0)
(-0.731492 0 0)
(-0.727222 0 0)
(-0.722929 0 0)
(-0.718614 0 0)
(-0.714276 0 0)
(-0.709917 0 0)
(-0.705536 0 0)
(-0.701133 0 0)
(-0.696709 0 0)
(-0.692264 0 0)
(-0.687799 0 0)
(-0.683312 0 0)
(-0.678806 0 0)
(-0.674279 0 0)
(-0.669732 0 0)
(-0.665165 0 0)
(-0.660579 0 0)
(-0.655973 0 0)
(-0.651348 0 0)
(-0.646704 0 0)
(-0.642042 0 0)
(-0.63736 0 0)
(-0.632661 0 0)
(-0.627943 0 0)
(-0.623207 0 0)
(-0.618454 0 0)
(-0.613683 0 0)
(-0.608894 0 0)
(-0.604088 0 0)
(-0.599266 0 0)
(-0.594426 0 0)
(-0.58957 0 0)
(-0.584697 0 0)
(-0.579808 0 0)
(-0.574903 0 0)
(-0.569982 0 0)
(-0.565046 0 0)
(-0.560093 0 0)
(-0.555126 0 0)
(-0.550143 0 0)
(-0.545145 0 0)
(-0.540133 0 0)
(-0.535105 0 0)
(-0.530064 0 0)
(-0.525008 0 0)
(-0.519938 0 0)
(-0.514854 0 0)
(-0.509756 0 0)
(-0.504644 0 0)
(-0.499519 0 0)
(-0.494381 0 0)
(-0.48923 0 0)
(-0.484066 0 0)
(-0.478889 0 0)
(-0.473699 0 0)
(-0.468497 0 0)
(-0.463283 0 0)
(-0.458057 0 0)
(-0.452819 0 0)
(-0.447569 0 0)
(-0.442307 0 0)
(-0.437034 0 0)
(-0.43175 0 0)
(-0.426454 0 0)
(-0.421148 0 0)
(-0.41583 0 0)
(-0.410503 0 0)
(-0.405164 0 0)
(-0.399815 0 0)
(-0.394457 0 0)
(-0.389088 0 0)
(-0.383709 0 0)
(-0.37832 0 0)
(-0.372922 0 0)
(-0.367515 0 0)
(-0.362098 0 0)
(-0.356672 0 0)
(-0.351237 0 0)
(-0.345794 0 0)
(-0.340342 0 0)
(-0.334881 0 0)
(-0.329412 0 0)
(-0.323935 0 0)
(-0.318449 0 0)
(-0.312956 0 0)
(-0.307455 0 0)
(-0.301947 0 0)
(-0.296431 0 0)
(-0.290907 0 0)
(-0.285377 0 0)
(-0.279839 0 0)
(-0.274295 0 0)
(-0.268744 0 0)
(-0.263186 0 0)
(-0.257622 0 0)
(-0.252052 0 0)
(-0.246475 0 0)
(-0.240893 0 0)
(-0.235304 0 0)
(-0.22971 0 0)
(-0.22411 0 0)
(-0.218505 0 0)
(-0.212895 0 0)
(-0.207279 0 0)
(-0.201658 0 0)
(-0.196033 0 0)
(-0.190402 0 0)
(-0.184768 0 0)
(-0.179128 0 0)
(-0.173485 0 0)
(-0.167837 0 0)
(-0.162185 0 0)
(-0.156529 0 0)
(-0.15087 0 0)
(-0.145207 0 0)
(-0.13954 0 0)
(-0.13387 0 0)
(-0.128197 0 0)
(-0.122521 0 0)
(-0.116842 0 0)
(-0.11116 0 0)
(-0.105475 0 0)
(-0.0997883 0 0)
(-0.0940988 0 0)
(-0.0884071 0 0)
(-0.0827132 0 0)
(-0.0770174 0 0)
(-0.0713198 0 0)
(-0.0656205 0 0)
(-0.0599196 0 0)
(-0.0542172 0 0)
(-0.0485136 0 0)
(-0.0428089 0 0)
(-0.0371031 0 0)
(-0.0313964 0 0)
(-0.025689 0 0)
(-0.019981 0 0)
(-0.0142725 0 0)
(-0.00856361 0 0)
(-0.00285456 0 0)
)
;

boundaryField
{
    left
    {
        type            fixedValue;
        value           uniform (0 0 0);
    }
    right
    {
        type            fixedValue;
        value           uniform (0 0 0);
    }
    frontBackUpDown
    {
        type            empty;
    }
}


// ************************************************************************* //
