/*--------------------------------*- C++ -*----------------------------------*\
| =========                 |                                                 |
| \\      /  F ield         | OpenFOAM: The Open Source CFD Toolbox           |
|  \\    /   O peration     | Version:  2412                                  |
|   \\  /    A nd           | Website:  www.openfoam.com                      |
|    \\/     M anipulation  |                                                 |
\*---------------------------------------------------------------------------*/
FoamFile
{
    version     2.0;
    format      ascii;
    arch        "LSB;label=32;scalar=64";
    class       volVectorField;
    location    "0.12";
    object      U_0_0_0;
}
// * * * * * * * * * * * * * * * * * * * * * * * * * * * * * * * * * * * * * //

dimensions      [0 1 -1 0 0 0 0];

internalField   nonuniform List<vector> 
800
(
(0.00286103 0 0)
(0.00858314 0 0)
(0.0143051 0 0)
(0.0200266 0 0)
(0.0257477 0 0)
(0.0314682 0 0)
(0.0371879 0 0)
(0.0429068 0 0)
(0.0486246 0 0)
(0.0543412 0 0)
(0.0600565 0 0)
(0.0657704 0 0)
(0.0714827 0 0)
(0.0771934 0 0)
(0.0829021 0 0)
(0.0886089 0 0)
(0.0943135 0 0)
(0.100016 0 0)
(0.105716 0 0)
(0.111413 0 0)
(0.117108 0 0)
(0.1228 0 0)
(0.128489 0 0)
(0.134175 0 0)
(0.139857 0 0)
(0.145537 0 0)
(0.151212 0 0)
(0.156884 0 0)
(0.162553 0 0)
(0.168217 0 0)
(0.173877 0 0)
(0.179534 0 0)
(0.185185 0 0)
(0.190833 0 0)
(0.196475 0 0)
(0.202113 0 0)
(0.207746 0 0)
(0.213374 0 0)
(0.218996 0 0)
(0.224614 0 0)
(0.230226 0 0)
(0.235832 0 0)
(0.241432 0 0)
(0.247027 0 0)
(0.252615 0 0)
(0.258197 0 0)
(0.263773 0 0)
(0.269343 0 0)
(0.274905 0 0)
(0.280461 0 0)
(0.28601 0 0)
(0.291552 0 0)
(0.297087 0 0)
(0.302614 0 0)
(0.308134 0 0)
(0.313646 0 0)
(0.31915 0 0)
(0.324647 0 0)
(0.330135 0 0)
(0.335615 0 0)
(0.341087 0 0)
(0.346549 0 0)
(0.352004 0 0)
(0.357449 0 0)
(0.362885 0 0)
(0.368313 0 0)
(0.37373 0 0)
(0.379139 0 0)
(0.384537 0 0)
(0.389926 0 0)
(0.395305 0 0)
(0.400674 0 0)
(0.406033 0 0)
(0.411381 0 0)
(0.416718 0 0)
(0.422045 0 0)
(0.427361 0 0)
(0.432666 0 0)
(0.437959 0 0)
(0.443242 0 0)
(0.448512 0 0)
(0.453771 0 0)
(0.459018 0 0)
(0.464253 0 0)
(0.469476 0 0)
(0.474687 0 0)
(0.479885 0 0)
(0.48507 0 0)
(0.490242 0 0)
(0.495402 0 0)
(0.500548 0 0)
(0.505681 0 0)
(0.5108 0 0)
(0.515905 0 0)
(0.520997 0 0)
(0.526074 0 0)
(0.531137 0 0)
(0.536186 0 0)
(0.541221 0 0)
(0.54624 0 0)
(0.551245 0 0)
(0.556234 0 0)
(0.561208 0 0)
(0.566167 0 0)
(0.571109 0 0)
(0.576036 0 0)
(0.580947 0 0)
(0.585842 0 0)
(0.590721 0 0)
(0.595582 0 0)
(0.600427 0 0)
(0.605255 0 0)
(0.610066 0 0)
(0.61486 0 0)
(0.619636 0 0)
(0.624394 0 0)
(0.629134 0 0)
(0.633856 0 0)
(0.63856 0 0)
(0.643245 0 0)
(0.647912 0 0)
(0.652559 0 0)
(0.657188 0 0)
(0.661797 0 0)
(0.666386 0 0)
(0.670956 0 0)
(0.675506 0 0)
(0.680036 0 0)
(0.684545 0 0)
(0.689034 0 0)
(0.693502 0 0)
(0.697949 0 0)
(0.702375 0 0)
(0.706779 0 0)
(0.711162 0 0)
(0.715522 0 0)
(0.719861 0 0)
(0.724177 0 0)
(0.728471 0 0)
(0.732742 0 0)
(0.73699 0 0)
(0.741215 0 0)
(0.745417 0 0)
(0.749594 0 0)
(0.753748 0 0)
(0.757878 0 0)
(0.761983 0 0)
(0.766064 0 0)
(0.770119 0 0)
(0.77415 0 0)
(0.778155 0 0)
(0.782135 0 0)
(0.786089 0 0)
(0.790016 0 0)
(0.793918 0 0)
(0.797793 0 0)
(0.801641 0 0)
(0.805461 0 0)
(0.809255 0 0)
(0.813021 0 0)
(0.816759 0 0)
(0.820468 0 0)
(0.82415 0 0)
(0.827802 0 0)
(0.831426 0 0)
(0.835021 0 0)
(0.838586 0 0)
(0.842121 0 0)
(0.845626 0 0)
(0.849101 0 0)
(0.852545 0 0)
(0.855958 0 0)
(0.85934 0 0)
(0.86269 0 0)
(0.866009 0 0)
(0.869296 0 0)
(0.87255 0 0)
(0.875772 0 0)
(0.87896 0 0)
(0.882116 0 0)
(0.885238 0 0)
(0.888325 0 0)
(0.891379 0 0)
(0.894398 0 0)
(0.897382 0 0)
(0.900332 0 0)
(0.903245 0 0)
(0.906123 0 0)
(0.908965 0 0)
(0.91177 0 0)
(0.914538 0 0)
(0.91727 0 0)
(0.919963 0 0)
(0.922619 0 0)
(0.925237 0 0)
(0.927816 0 0)
(0.930357 0 0)
(0.932858 0 0)
(0.935319 0 0)
(0.937741 0 0)
(0.940122 0 0)
(0.942463 0 0)
(0.944763 0 0)
(0.947021 0 0)
(0.949238 0 0)
(0.951412 0 0)
(0.953544 0 0)
(0.955632 0 0)
(0.957678 0 0)
(0.95968 0 0)
(0.961637 0 0)
(0.963551 0 0)
(0.965419 0 0)
(0.967242 0 0)
(0.969019 0 0)
(0.97075 0 0)
(0.972435 0 0)
(0.974072 0 0)
(0.975662 0 0)
(0.977205 0 0)
(0.978699 0 0)
(0.980144 0 0)
(0.981541 0 0)
(0.982887 0 0)
(0.984184 0 0)
(0.98543 0 0)
(0.986626 0 0)
(0.987769 0 0)
(0.988862 0 0)
(0.989901 0 0)
(0.990888 0 0)
(0.991822 0 0)
(0.992702 0 0)
(0.993528 0 0)
(0.994299 0 0)
(0.995015 0 0)
(0.995676 0 0)
(0.99628 0 0)
(0.996827 0 0)
(0.997318 0 0)
(0.997751 0 0)
(0.998125 0 0)
(0.998441 0 0)
(0.998697 0 0)
(0.998894 0 0)
(0.999031 0 0)
(0.999106 0 0)
(0.999121 0 0)
(0.999073 0 0)
(0.998963 0 0)
(0.99879 0 0)
(0.998554 0 0)
(0.998253 0 0)
(0.997888 0 0)
(0.997457 0 0)
(0.996961 0 0)
(0.996398 0 0)
(0.995768 0 0)
(0.995071 0 0)
(0.994306 0 0)
(0.993471 0 0)
(0.992568 0 0)
(0.991595 0 0)
(0.990551 0 0)
(0.989436 0 0)
(0.988249 0 0)
(0.98699 0 0)
(0.985659 0 0)
(0.984253 0 0)
(0.982774 0 0)
(0.981219 0 0)
(0.979589 0 0)
(0.977883 0 0)
(0.976101 0 0)
(0.974241 0 0)
(0.972303 0 0)
(0.970286 0 0)
(0.968191 0 0)
(0.966015 0 0)
(0.963759 0 0)
(0.961421 0 0)
(0.959002 0 0)
(0.9565 0 0)
(0.953916 0 0)
(0.951247 0 0)
(0.948494 0 0)
(0.945656 0 0)
(0.942732 0 0)
(0.939722 0 0)
(0.936624 0 0)
(0.933439 0 0)
(0.930166 0 0)
(0.926803 0 0)
(0.923351 0 0)
(0.919809 0 0)
(0.916175 0 0)
(0.91245 0 0)
(0.908633 0 0)
(0.904723 0 0)
(0.900719 0 0)
(0.896622 0 0)
(0.892429 0 0)
(0.888141 0 0)
(0.883758 0 0)
(0.879277 0 0)
(0.8747 0 0)
(0.870025 0 0)
(0.865251 0 0)
(0.860378 0 0)
(0.855406 0 0)
(0.850334 0 0)
(0.845161 0 0)
(0.839888 0 0)
(0.834512 0 0)
(0.829035 0 0)
(0.823454 0 0)
(0.817771 0 0)
(0.811984 0 0)
(0.806093 0 0)
(0.800097 0 0)
(0.793997 0 0)
(0.787791 0 0)
(0.78148 0 0)
(0.775062 0 0)
(0.768539 0 0)
(0.761908 0 0)
(0.755171 0 0)
(0.748326 0 0)
(0.741374 0 0)
(0.734314 0 0)
(0.727147 0 0)
(0.719871 0 0)
(0.712487 0 0)
(0.704995 0 0)
(0.697395 0 0)
(0.689686 0 0)
(0.681869 0 0)
(0.673944 0 0)
(0.66591 0 0)
(0.657768 0 0)
(0.649519 0 0)
(0.641161 0 0)
(0.632696 0 0)
(0.624124 0 0)
(0.615445 0 0)
(0.60666 0 0)
(0.597768 0 0)
(0.588771 0 0)
(0.579668 0 0)
(0.570461 0 0)
(0.56115 0 0)
(0.551736 0 0)
(0.542219 0 0)
(0.5326 0 0)
(0.522881 0 0)
(0.513061 0 0)
(0.503142 0 0)
(0.493126 0 0)
(0.483012 0 0)
(0.472802 0 0)
(0.462497 0 0)
(0.452099 0 0)
(0.441609 0 0)
(0.431028 0 0)
(0.420358 0 0)
(0.4096 0 0)
(0.398756 0 0)
(0.387827 0 0)
(0.376815 0 0)
(0.365721 0 0)
(0.354549 0 0)
(0.343299 0 0)
(0.331973 0 0)
(0.320574 0 0)
(0.309103 0 0)
(0.297563 0 0)
(0.285955 0 0)
(0.274283 0 0)
(0.262548 0 0)
(0.250752 0 0)
(0.238899 0 0)
(0.22699 0 0)
(0.215028 0 0)
(0.203016 0 0)
(0.190956 0 0)
(0.178851 0 0)
(0.166704 0 0)
(0.154517 0 0)
(0.142293 0 0)
(0.130035 0 0)
(0.117746 0 0)
(0.105428 0 0)
(0.0930851 0 0)
(0.0807195 0 0)
(0.0683344 0 0)
(0.0559326 0 0)
(0.0435173 0 0)
(0.0310913 0 0)
(0.0186578 0 0)
(0.00621979 0 0)
(-0.00621977 0 0)
(-0.0186578 0 0)
(-0.0310913 0 0)
(-0.0435172 0 0)
(-0.0559325 0 0)
(-0.0683343 0 0)
(-0.0807194 0 0)
(-0.093085 0 0)
(-0.105428 0 0)
(-0.117746 0 0)
(-0.130035 0 0)
(-0.142293 0 0)
(-0.154517 0 0)
(-0.166704 0 0)
(-0.178851 0 0)
(-0.190956 0 0)
(-0.203016 0 0)
(-0.215028 0 0)
(-0.226989 0 0)
(-0.238898 0 0)
(-0.250751 0 0)
(-0.262547 0 0)
(-0.274282 0 0)
(-0.285954 0 0)
(-0.297561 0 0)
(-0.309102 0 0)
(-0.320572 0 0)
(-0.331972 0 0)
(-0.343297 0 0)
(-0.354547 0 0)
(-0.36572 0 0)
(-0.376813 0 0)
(-0.387825 0 0)
(-0.398754 0 0)
(-0.409598 0 0)
(-0.420356 0 0)
(-0.431027 0 0)
(-0.441607 0 0)
(-0.452098 0 0)
(-0.462495 0 0)
(-0.4728 0 0)
(-0.48301 0 0)
(-0.493123 0 0)
(-0.50314 0 0)
(-0.513059 0 0)
(-0.522879 0 0)
(-0.532598 0 0)
(-0.542217 0 0)
(-0.551734 0 0)
(-0.561148 0 0)
(-0.570459 0 0)
(-0.579666 0 0)
(-0.588768 0 0)
(-0.597766 0 0)
(-0.606657 0 0)
(-0.615443 0 0)
(-0.624122 0 0)
(-0.632694 0 0)
(-0.641159 0 0)
(-0.649516 0 0)
(-0.657766 0 0)
(-0.665907 0 0)
(-0.673941 0 0)
(-0.681866 0 0)
(-0.689683 0 0)
(-0.697392 0 0)
(-0.704992 0 0)
(-0.712485 0 0)
(-0.719868 0 0)
(-0.727144 0 0)
(-0.734312 0 0)
(-0.741372 0 0)
(-0.748324 0 0)
(-0.755168 0 0)
(-0.761906 0 0)
(-0.768536 0 0)
(-0.77506 0 0)
(-0.781477 0 0)
(-0.787789 0 0)
(-0.793995 0 0)
(-0.800095 0 0)
(-0.806091 0 0)
(-0.811982 0 0)
(-0.817769 0 0)
(-0.823452 0 0)
(-0.829033 0 0)
(-0.83451 0 0)
(-0.839886 0 0)
(-0.84516 0 0)
(-0.850332 0 0)
(-0.855404 0 0)
(-0.860377 0 0)
(-0.865249 0 0)
(-0.870023 0 0)
(-0.874698 0 0)
(-0.879276 0 0)
(-0.883756 0 0)
(-0.88814 0 0)
(-0.892428 0 0)
(-0.89662 0 0)
(-0.900718 0 0)
(-0.904722 0 0)
(-0.908632 0 0)
(-0.912449 0 0)
(-0.916174 0 0)
(-0.919808 0 0)
(-0.92335 0 0)
(-0.926802 0 0)
(-0.930165 0 0)
(-0.933438 0 0)
(-0.936623 0 0)
(-0.939721 0 0)
(-0.942731 0 0)
(-0.945655 0 0)
(-0.948493 0 0)
(-0.951246 0 0)
(-0.953915 0 0)
(-0.9565 0 0)
(-0.959002 0 0)
(-0.961421 0 0)
(-0.963758 0 0)
(-0.966014 0 0)
(-0.96819 0 0)
(-0.970286 0 0)
(-0.972302 0 0)
(-0.97424 0 0)
(-0.9761 0 0)
(-0.977883 0 0)
(-0.979589 0 0)
(-0.981219 0 0)
(-0.982773 0 0)
(-0.984253 0 0)
(-0.985658 0 0)
(-0.98699 0 0)
(-0.988249 0 0)
(-0.989436 0 0)
(-0.990551 0 0)
(-0.991595 0 0)
(-0.992568 0 0)
(-0.993471 0 0)
(-0.994305 0 0)
(-0.995071 0 0)
(-0.995768 0 0)
(-0.996398 0 0)
(-0.996961 0 0)
(-0.997457 0 0)
(-0.997888 0 0)
(-0.998253 0 0)
(-0.998554 0 0)
(-0.99879 0 0)
(-0.998963 0 0)
(-0.999073 0 0)
(-0.999121 0 0)
(-0.999106 0 0)
(-0.999031 0 0)
(-0.998894 0 0)
(-0.998697 0 0)
(-0.998441 0 0)
(-0.998125 0 0)
(-0.997751 0 0)
(-0.997318 0 0)
(-0.996827 0 0)
(-0.99628 0 0)
(-0.995676 0 0)
(-0.995015 0 0)
(-0.994299 0 0)
(-0.993528 0 0)
(-0.992702 0 0)
(-0.991822 0 0)
(-0.990888 0 0)
(-0.989901 0 0)
(-0.988861 0 0)
(-0.987769 0 0)
(-0.986625 0 0)
(-0.98543 0 0)
(-0.984184 0 0)
(-0.982887 0 0)
(-0.98154 0 0)
(-0.980144 0 0)
(-0.978699 0 0)
(-0.977205 0 0)
(-0.975662 0 0)
(-0.974072 0 0)
(-0.972434 0 0)
(-0.97075 0 0)
(-0.969019 0 0)
(-0.967241 0 0)
(-0.965418 0 0)
(-0.96355 0 0)
(-0.961637 0 0)
(-0.959679 0 0)
(-0.957677 0 0)
(-0.955632 0 0)
(-0.953543 0 0)
(-0.951411 0 0)
(-0.949237 0 0)
(-0.947021 0 0)
(-0.944762 0 0)
(-0.942463 0 0)
(-0.940122 0 0)
(-0.937741 0 0)
(-0.935319 0 0)
(-0.932857 0 0)
(-0.930356 0 0)
(-0.927816 0 0)
(-0.925236 0 0)
(-0.922619 0 0)
(-0.919963 0 0)
(-0.917269 0 0)
(-0.914538 0 0)
(-0.911769 0 0)
(-0.908964 0 0)
(-0.906122 0 0)
(-0.903244 0 0)
(-0.900331 0 0)
(-0.897382 0 0)
(-0.894397 0 0)
(-0.891378 0 0)
(-0.888325 0 0)
(-0.885237 0 0)
(-0.882115 0 0)
(-0.87896 0 0)
(-0.875771 0 0)
(-0.872549 0 0)
(-0.869295 0 0)
(-0.866008 0 0)
(-0.86269 0 0)
(-0.859339 0 0)
(-0.855957 0 0)
(-0.852544 0 0)
(-0.8491 0 0)
(-0.845625 0 0)
(-0.84212 0 0)
(-0.838585 0 0)
(-0.83502 0 0)
(-0.831425 0 0)
(-0.827801 0 0)
(-0.824149 0 0)
(-0.820467 0 0)
(-0.816758 0 0)
(-0.81302 0 0)
(-0.809254 0 0)
(-0.80546 0 0)
(-0.801639 0 0)
(-0.797792 0 0)
(-0.793917 0 0)
(-0.790015 0 0)
(-0.786088 0 0)
(-0.782134 0 0)
(-0.778154 0 0)
(-0.774149 0 0)
(-0.770118 0 0)
(-0.766062 0 0)
(-0.761982 0 0)
(-0.757877 0 0)
(-0.753747 0 0)
(-0.749593 0 0)
(-0.745415 0 0)
(-0.741214 0 0)
(-0.736989 0 0)
(-0.732741 0 0)
(-0.72847 0 0)
(-0.724176 0 0)
(-0.71986 0 0)
(-0.715521 0 0)
(-0.71116 0 0)
(-0.706778 0 0)
(-0.702373 0 0)
(-0.697948 0 0)
(-0.693501 0 0)
(-0.689033 0 0)
(-0.684544 0 0)
(-0.680035 0 0)
(-0.675505 0 0)
(-0.670955 0 0)
(-0.666385 0 0)
(-0.661796 0 0)
(-0.657186 0 0)
(-0.652558 0 0)
(-0.64791 0 0)
(-0.643244 0 0)
(-0.638559 0 0)
(-0.633855 0 0)
(-0.629133 0 0)
(-0.624393 0 0)
(-0.619634 0 0)
(-0.614859 0 0)
(-0.610065 0 0)
(-0.605254 0 0)
(-0.600426 0 0)
(-0.595581 0 0)
(-0.59072 0 0)
(-0.585841 0 0)
(-0.580946 0 0)
(-0.576035 0 0)
(-0.571108 0 0)
(-0.566166 0 0)
(-0.561207 0 0)
(-0.556233 0 0)
(-0.551244 0 0)
(-0.546239 0 0)
(-0.54122 0 0)
(-0.536185 0 0)
(-0.531137 0 0)
(-0.526073 0 0)
(-0.520996 0 0)
(-0.515904 0 0)
(-0.510799 0 0)
(-0.50568 0 0)
(-0.500547 0 0)
(-0.495401 0 0)
(-0.490242 0 0)
(-0.485069 0 0)
(-0.479884 0 0)
(-0.474686 0 0)
(-0.469476 0 0)
(-0.464253 0 0)
(-0.459018 0 0)
(-0.453771 0 0)
(-0.448512 0 0)
(-0.443241 0 0)
(-0.437959 0 0)
(-0.432665 0 0)
(-0.42736 0 0)
(-0.422044 0 0)
(-0.416718 0 0)
(-0.41138 0 0)
(-0.406032 0 0)
(-0.400674 0 0)
(-0.395305 0 0)
(-0.389926 0 0)
(-0.384537 0 0)
(-0.379138 0 0)
(-0.37373 0 0)
(-0.368312 0 0)
(-0.362885 0 0)
(-0.357449 0 0)
(-0.352003 0 0)
(-0.346549 0 0)
(-0.341086 0 0)
(-0.335615 0 0)
(-0.330135 0 0)
(-0.324646 0 0)
(-0.31915 0 0)
(-0.313646 0 0)
(-0.308134 0 0)
(-0.302614 0 0)
(-0.297087 0 0)
(-0.291552 0 0)
(-0.28601 0 0)
(-0.280461 0 0)
(-0.274905 0 0)
(-0.269342 0 0)
(-0.263773 0 0)
(-0.258197 0 0)
(-0.252615 0 0)
(-0.247026 0 0)
(-0.241432 0 0)
(-0.235832 0 0)
(-0.230225 0 0)
(-0.224614 0 0)
(-0.218996 0 0)
(-0.213374 0 0)
(-0.207746 0 0)
(-0.202113 0 0)
(-0.196475 0 0)
(-0.190832 0 0)
(-0.185185 0 0)
(-0.179533 0 0)
(-0.173877 0 0)
(-0.168217 0 0)
(-0.162553 0 0)
(-0.156884 0 0)
(-0.151212 0 0)
(-0.145537 0 0)
(-0.139857 0 0)
(-0.134175 0 0)
(-0.128489 0 0)
(-0.1228 0 0)
(-0.117108 0 0)
(-0.111413 0 0)
(-0.105716 0 0)
(-0.100016 0 0)
(-0.0943135 0 0)
(-0.0886088 0 0)
(-0.0829021 0 0)
(-0.0771933 0 0)
(-0.0714827 0 0)
(-0.0657704 0 0)
(-0.0600565 0 0)
(-0.0543412 0 0)
(-0.0486246 0 0)
(-0.0429068 0 0)
(-0.037188 0 0)
(-0.0314682 0 0)
(-0.0257478 0 0)
(-0.0200267 0 0)
(-0.0143051 0 0)
(-0.00858321 0 0)
(-0.00286109 0 0)
)
;

boundaryField
{
    left
    {
        type            fixedValue;
        value           uniform (0 0 0);
    }
    right
    {
        type            fixedValue;
        value           uniform (0 0 0);
    }
    frontBackUpDown
    {
        type            empty;
    }
}


// ************************************************************************* //
