/*--------------------------------*- C++ -*----------------------------------*\
| =========                 |                                                 |
| \\      /  F ield         | OpenFOAM: The Open Source CFD Toolbox           |
|  \\    /   O peration     | Version:  2412                                  |
|   \\  /    A nd           | Website:  www.openfoam.com                      |
|    \\/     M anipulation  |                                                 |
\*---------------------------------------------------------------------------*/
FoamFile
{
    version     2.0;
    format      ascii;
    arch        "LSB;label=32;scalar=64";
    class       volVectorField;
    location    "0.91";
    object      U_0;
}
// * * * * * * * * * * * * * * * * * * * * * * * * * * * * * * * * * * * * * //

dimensions      [0 1 -1 0 0 0 0];

internalField   nonuniform List<vector> 
800
(
(0.00101904 0 0)
(0.00305714 0 0)
(0.00509524 0 0)
(0.00713334 0 0)
(0.00917142 0 0)
(0.0112095 0 0)
(0.0132476 0 0)
(0.0152856 0 0)
(0.0173236 0 0)
(0.0193616 0 0)
(0.0213996 0 0)
(0.0234376 0 0)
(0.0254755 0 0)
(0.0275135 0 0)
(0.0295513 0 0)
(0.0315892 0 0)
(0.033627 0 0)
(0.0356648 0 0)
(0.0377025 0 0)
(0.0397402 0 0)
(0.0417779 0 0)
(0.0438155 0 0)
(0.045853 0 0)
(0.0478906 0 0)
(0.049928 0 0)
(0.0519654 0 0)
(0.0540027 0 0)
(0.05604 0 0)
(0.0580773 0 0)
(0.0601144 0 0)
(0.0621515 0 0)
(0.0641885 0 0)
(0.0662255 0 0)
(0.0682623 0 0)
(0.0702991 0 0)
(0.0723359 0 0)
(0.0743725 0 0)
(0.0764091 0 0)
(0.0784455 0 0)
(0.0804819 0 0)
(0.0825182 0 0)
(0.0845544 0 0)
(0.0865905 0 0)
(0.0886266 0 0)
(0.0906625 0 0)
(0.0926983 0 0)
(0.094734 0 0)
(0.0967696 0 0)
(0.0988051 0 0)
(0.10084 0 0)
(0.102876 0 0)
(0.104911 0 0)
(0.106946 0 0)
(0.108981 0 0)
(0.111016 0 0)
(0.11305 0 0)
(0.115085 0 0)
(0.117119 0 0)
(0.119154 0 0)
(0.121188 0 0)
(0.123222 0 0)
(0.125256 0 0)
(0.127289 0 0)
(0.129323 0 0)
(0.131357 0 0)
(0.13339 0 0)
(0.135423 0 0)
(0.137456 0 0)
(0.139489 0 0)
(0.141522 0 0)
(0.143554 0 0)
(0.145586 0 0)
(0.147619 0 0)
(0.149651 0 0)
(0.151683 0 0)
(0.153714 0 0)
(0.155746 0 0)
(0.157777 0 0)
(0.159808 0 0)
(0.161839 0 0)
(0.16387 0 0)
(0.165901 0 0)
(0.167931 0 0)
(0.169961 0 0)
(0.171991 0 0)
(0.174021 0 0)
(0.176051 0 0)
(0.17808 0 0)
(0.18011 0 0)
(0.182139 0 0)
(0.184167 0 0)
(0.186196 0 0)
(0.188224 0 0)
(0.190253 0 0)
(0.192281 0 0)
(0.194308 0 0)
(0.196336 0 0)
(0.198363 0 0)
(0.20039 0 0)
(0.202417 0 0)
(0.204444 0 0)
(0.20647 0 0)
(0.208496 0 0)
(0.210522 0 0)
(0.212548 0 0)
(0.214573 0 0)
(0.216598 0 0)
(0.218623 0 0)
(0.220648 0 0)
(0.222672 0 0)
(0.224696 0 0)
(0.22672 0 0)
(0.228744 0 0)
(0.230767 0 0)
(0.23279 0 0)
(0.234813 0 0)
(0.236835 0 0)
(0.238858 0 0)
(0.24088 0 0)
(0.242901 0 0)
(0.244923 0 0)
(0.246944 0 0)
(0.248965 0 0)
(0.250985 0 0)
(0.253005 0 0)
(0.255025 0 0)
(0.257045 0 0)
(0.259064 0 0)
(0.261083 0 0)
(0.263102 0 0)
(0.26512 0 0)
(0.267138 0 0)
(0.269156 0 0)
(0.271173 0 0)
(0.27319 0 0)
(0.275207 0 0)
(0.277224 0 0)
(0.27924 0 0)
(0.281255 0 0)
(0.283271 0 0)
(0.285286 0 0)
(0.287301 0 0)
(0.289315 0 0)
(0.291329 0 0)
(0.293343 0 0)
(0.295356 0 0)
(0.297369 0 0)
(0.299382 0 0)
(0.301394 0 0)
(0.303406 0 0)
(0.305417 0 0)
(0.307428 0 0)
(0.309439 0 0)
(0.311449 0 0)
(0.313459 0 0)
(0.315469 0 0)
(0.317478 0 0)
(0.319487 0 0)
(0.321495 0 0)
(0.323503 0 0)
(0.325511 0 0)
(0.327518 0 0)
(0.329525 0 0)
(0.331531 0 0)
(0.333537 0 0)
(0.335543 0 0)
(0.337548 0 0)
(0.339553 0 0)
(0.341557 0 0)
(0.343561 0 0)
(0.345564 0 0)
(0.347567 0 0)
(0.34957 0 0)
(0.351572 0 0)
(0.353573 0 0)
(0.355574 0 0)
(0.357575 0 0)
(0.359575 0 0)
(0.361575 0 0)
(0.363575 0 0)
(0.365573 0 0)
(0.367572 0 0)
(0.36957 0 0)
(0.371567 0 0)
(0.373564 0 0)
(0.375561 0 0)
(0.377557 0 0)
(0.379552 0 0)
(0.381547 0 0)
(0.383542 0 0)
(0.385536 0 0)
(0.387529 0 0)
(0.389522 0 0)
(0.391515 0 0)
(0.393507 0 0)
(0.395498 0 0)
(0.397489 0 0)
(0.399479 0 0)
(0.401469 0 0)
(0.403458 0 0)
(0.405447 0 0)
(0.407436 0 0)
(0.409423 0 0)
(0.41141 0 0)
(0.413397 0 0)
(0.415383 0 0)
(0.417368 0 0)
(0.419353 0 0)
(0.421338 0 0)
(0.423321 0 0)
(0.425304 0 0)
(0.427287 0 0)
(0.429269 0 0)
(0.43125 0 0)
(0.433231 0 0)
(0.435212 0 0)
(0.437191 0 0)
(0.43917 0 0)
(0.441149 0 0)
(0.443126 0 0)
(0.445103 0 0)
(0.44708 0 0)
(0.449056 0 0)
(0.451031 0 0)
(0.453006 0 0)
(0.45498 0 0)
(0.456953 0 0)
(0.458926 0 0)
(0.460898 0 0)
(0.462869 0 0)
(0.46484 0 0)
(0.46681 0 0)
(0.46878 0 0)
(0.470748 0 0)
(0.472716 0 0)
(0.474684 0 0)
(0.47665 0 0)
(0.478616 0 0)
(0.480582 0 0)
(0.482546 0 0)
(0.48451 0 0)
(0.486473 0 0)
(0.488436 0 0)
(0.490397 0 0)
(0.492358 0 0)
(0.494319 0 0)
(0.496278 0 0)
(0.498237 0 0)
(0.500195 0 0)
(0.502152 0 0)
(0.504109 0 0)
(0.506064 0 0)
(0.508019 0 0)
(0.509973 0 0)
(0.511927 0 0)
(0.51388 0 0)
(0.515831 0 0)
(0.517782 0 0)
(0.519733 0 0)
(0.521682 0 0)
(0.523631 0 0)
(0.525579 0 0)
(0.527526 0 0)
(0.529472 0 0)
(0.531417 0 0)
(0.533362 0 0)
(0.535305 0 0)
(0.537248 0 0)
(0.53919 0 0)
(0.541131 0 0)
(0.543072 0 0)
(0.545011 0 0)
(0.546949 0 0)
(0.548887 0 0)
(0.550824 0 0)
(0.55276 0 0)
(0.554695 0 0)
(0.556629 0 0)
(0.558562 0 0)
(0.560494 0 0)
(0.562425 0 0)
(0.564355 0 0)
(0.566285 0 0)
(0.568213 0 0)
(0.570141 0 0)
(0.572067 0 0)
(0.573993 0 0)
(0.575917 0 0)
(0.577841 0 0)
(0.579764 0 0)
(0.581685 0 0)
(0.583606 0 0)
(0.585526 0 0)
(0.587444 0 0)
(0.589362 0 0)
(0.591278 0 0)
(0.593194 0 0)
(0.595108 0 0)
(0.597022 0 0)
(0.598934 0 0)
(0.600846 0 0)
(0.602756 0 0)
(0.604665 0 0)
(0.606573 0 0)
(0.60848 0 0)
(0.610386 0 0)
(0.612291 0 0)
(0.614195 0 0)
(0.616097 0 0)
(0.617999 0 0)
(0.619899 0 0)
(0.621798 0 0)
(0.623696 0 0)
(0.625593 0 0)
(0.627489 0 0)
(0.629383 0 0)
(0.631277 0 0)
(0.633169 0 0)
(0.63506 0 0)
(0.636949 0 0)
(0.638838 0 0)
(0.640725 0 0)
(0.642611 0 0)
(0.644496 0 0)
(0.646379 0 0)
(0.648261 0 0)
(0.650142 0 0)
(0.652022 0 0)
(0.6539 0 0)
(0.655777 0 0)
(0.657653 0 0)
(0.659528 0 0)
(0.661401 0 0)
(0.663273 0 0)
(0.665143 0 0)
(0.667012 0 0)
(0.66888 0 0)
(0.670746 0 0)
(0.672611 0 0)
(0.674474 0 0)
(0.676336 0 0)
(0.678197 0 0)
(0.680056 0 0)
(0.681914 0 0)
(0.68377 0 0)
(0.685625 0 0)
(0.687478 0 0)
(0.68933 0 0)
(0.691181 0 0)
(0.69303 0 0)
(0.694877 0 0)
(0.696723 0 0)
(0.698567 0 0)
(0.70041 0 0)
(0.702251 0 0)
(0.70409 0 0)
(0.705928 0 0)
(0.707764 0 0)
(0.709599 0 0)
(0.711432 0 0)
(0.713263 0 0)
(0.715093 0 0)
(0.716921 0 0)
(0.718748 0 0)
(0.720572 0 0)
(0.722395 0 0)
(0.724216 0 0)
(0.726036 0 0)
(0.727854 0 0)
(0.72967 0 0)
(0.731484 0 0)
(0.733296 0 0)
(0.735107 0 0)
(0.736915 0 0)
(0.738722 0 0)
(0.740527 0 0)
(0.74233 0 0)
(0.744131 0 0)
(0.745931 0 0)
(0.747728 0 0)
(0.749523 0 0)
(0.751317 0 0)
(0.753108 0 0)
(0.754898 0 0)
(0.756685 0 0)
(0.758471 0 0)
(0.760254 0 0)
(0.762036 0 0)
(0.763815 0 0)
(0.765592 0 0)
(0.767367 0 0)
(0.76914 0 0)
(0.770911 0 0)
(0.772679 0 0)
(0.774446 0 0)
(0.77621 0 0)
(0.777964 0 0)
(0.779172 0 0)
(0.748202 0 0)
(0.384701 0 0)
(-0.383486 0 0)
(-0.747995 0 0)
(-0.779166 0 0)
(-0.777961 0 0)
(-0.776207 0 0)
(-0.774443 0 0)
(-0.772677 0 0)
(-0.770908 0 0)
(-0.769138 0 0)
(-0.767365 0 0)
(-0.76559 0 0)
(-0.763813 0 0)
(-0.762033 0 0)
(-0.760252 0 0)
(-0.758469 0 0)
(-0.756683 0 0)
(-0.754896 0 0)
(-0.753106 0 0)
(-0.751315 0 0)
(-0.749521 0 0)
(-0.747726 0 0)
(-0.745928 0 0)
(-0.744129 0 0)
(-0.742328 0 0)
(-0.740525 0 0)
(-0.73872 0 0)
(-0.736913 0 0)
(-0.735104 0 0)
(-0.733294 0 0)
(-0.731481 0 0)
(-0.729667 0 0)
(-0.727851 0 0)
(-0.726034 0 0)
(-0.724214 0 0)
(-0.722393 0 0)
(-0.72057 0 0)
(-0.718745 0 0)
(-0.716919 0 0)
(-0.715091 0 0)
(-0.713261 0 0)
(-0.71143 0 0)
(-0.709597 0 0)
(-0.707762 0 0)
(-0.705926 0 0)
(-0.704088 0 0)
(-0.702248 0 0)
(-0.700407 0 0)
(-0.698565 0 0)
(-0.69672 0 0)
(-0.694875 0 0)
(-0.693027 0 0)
(-0.691178 0 0)
(-0.689328 0 0)
(-0.687476 0 0)
(-0.685623 0 0)
(-0.683768 0 0)
(-0.681912 0 0)
(-0.680054 0 0)
(-0.678195 0 0)
(-0.676334 0 0)
(-0.674472 0 0)
(-0.672609 0 0)
(-0.670744 0 0)
(-0.668878 0 0)
(-0.66701 0 0)
(-0.665141 0 0)
(-0.66327 0 0)
(-0.661399 0 0)
(-0.659526 0 0)
(-0.657651 0 0)
(-0.655775 0 0)
(-0.653898 0 0)
(-0.65202 0 0)
(-0.65014 0 0)
(-0.648259 0 0)
(-0.646377 0 0)
(-0.644494 0 0)
(-0.642609 0 0)
(-0.640723 0 0)
(-0.638836 0 0)
(-0.636947 0 0)
(-0.635058 0 0)
(-0.633167 0 0)
(-0.631275 0 0)
(-0.629381 0 0)
(-0.627487 0 0)
(-0.625591 0 0)
(-0.623694 0 0)
(-0.621796 0 0)
(-0.619897 0 0)
(-0.617997 0 0)
(-0.616095 0 0)
(-0.614193 0 0)
(-0.612289 0 0)
(-0.610384 0 0)
(-0.608478 0 0)
(-0.606571 0 0)
(-0.604663 0 0)
(-0.602754 0 0)
(-0.600844 0 0)
(-0.598933 0 0)
(-0.59702 0 0)
(-0.595107 0 0)
(-0.593192 0 0)
(-0.591277 0 0)
(-0.58936 0 0)
(-0.587442 0 0)
(-0.585524 0 0)
(-0.583604 0 0)
(-0.581684 0 0)
(-0.579762 0 0)
(-0.577839 0 0)
(-0.575916 0 0)
(-0.573991 0 0)
(-0.572066 0 0)
(-0.570139 0 0)
(-0.568212 0 0)
(-0.566283 0 0)
(-0.564354 0 0)
(-0.562423 0 0)
(-0.560492 0 0)
(-0.55856 0 0)
(-0.556627 0 0)
(-0.554693 0 0)
(-0.552758 0 0)
(-0.550822 0 0)
(-0.548885 0 0)
(-0.546948 0 0)
(-0.545009 0 0)
(-0.54307 0 0)
(-0.54113 0 0)
(-0.539189 0 0)
(-0.537247 0 0)
(-0.535304 0 0)
(-0.53336 0 0)
(-0.531416 0 0)
(-0.52947 0 0)
(-0.527524 0 0)
(-0.525577 0 0)
(-0.523629 0 0)
(-0.521681 0 0)
(-0.519731 0 0)
(-0.517781 0 0)
(-0.51583 0 0)
(-0.513878 0 0)
(-0.511926 0 0)
(-0.509972 0 0)
(-0.508018 0 0)
(-0.506063 0 0)
(-0.504107 0 0)
(-0.502151 0 0)
(-0.500193 0 0)
(-0.498235 0 0)
(-0.496277 0 0)
(-0.494317 0 0)
(-0.492357 0 0)
(-0.490396 0 0)
(-0.488434 0 0)
(-0.486472 0 0)
(-0.484509 0 0)
(-0.482545 0 0)
(-0.48058 0 0)
(-0.478615 0 0)
(-0.476649 0 0)
(-0.474682 0 0)
(-0.472715 0 0)
(-0.470747 0 0)
(-0.468778 0 0)
(-0.466809 0 0)
(-0.464839 0 0)
(-0.462868 0 0)
(-0.460897 0 0)
(-0.458925 0 0)
(-0.456952 0 0)
(-0.454979 0 0)
(-0.453005 0 0)
(-0.45103 0 0)
(-0.449055 0 0)
(-0.447079 0 0)
(-0.445102 0 0)
(-0.443125 0 0)
(-0.441147 0 0)
(-0.439169 0 0)
(-0.43719 0 0)
(-0.43521 0 0)
(-0.43323 0 0)
(-0.431249 0 0)
(-0.429268 0 0)
(-0.427286 0 0)
(-0.425303 0 0)
(-0.42332 0 0)
(-0.421337 0 0)
(-0.419352 0 0)
(-0.417367 0 0)
(-0.415382 0 0)
(-0.413396 0 0)
(-0.411409 0 0)
(-0.409422 0 0)
(-0.407435 0 0)
(-0.405446 0 0)
(-0.403458 0 0)
(-0.401468 0 0)
(-0.399478 0 0)
(-0.397488 0 0)
(-0.395497 0 0)
(-0.393506 0 0)
(-0.391514 0 0)
(-0.389521 0 0)
(-0.387528 0 0)
(-0.385535 0 0)
(-0.383541 0 0)
(-0.381546 0 0)
(-0.379551 0 0)
(-0.377556 0 0)
(-0.37556 0 0)
(-0.373563 0 0)
(-0.371566 0 0)
(-0.369569 0 0)
(-0.367571 0 0)
(-0.365573 0 0)
(-0.363574 0 0)
(-0.361575 0 0)
(-0.359575 0 0)
(-0.357574 0 0)
(-0.355574 0 0)
(-0.353573 0 0)
(-0.351571 0 0)
(-0.349569 0 0)
(-0.347566 0 0)
(-0.345563 0 0)
(-0.34356 0 0)
(-0.341556 0 0)
(-0.339552 0 0)
(-0.337547 0 0)
(-0.335542 0 0)
(-0.333537 0 0)
(-0.331531 0 0)
(-0.329524 0 0)
(-0.327518 0 0)
(-0.32551 0 0)
(-0.323503 0 0)
(-0.321495 0 0)
(-0.319486 0 0)
(-0.317478 0 0)
(-0.315468 0 0)
(-0.313459 0 0)
(-0.311449 0 0)
(-0.309438 0 0)
(-0.307428 0 0)
(-0.305417 0 0)
(-0.303405 0 0)
(-0.301393 0 0)
(-0.299381 0 0)
(-0.297369 0 0)
(-0.295356 0 0)
(-0.293342 0 0)
(-0.291329 0 0)
(-0.289315 0 0)
(-0.2873 0 0)
(-0.285285 0 0)
(-0.28327 0 0)
(-0.281255 0 0)
(-0.279239 0 0)
(-0.277223 0 0)
(-0.275207 0 0)
(-0.27319 0 0)
(-0.271173 0 0)
(-0.269156 0 0)
(-0.267138 0 0)
(-0.26512 0 0)
(-0.263101 0 0)
(-0.261083 0 0)
(-0.259064 0 0)
(-0.257044 0 0)
(-0.255025 0 0)
(-0.253005 0 0)
(-0.250985 0 0)
(-0.248964 0 0)
(-0.246943 0 0)
(-0.244922 0 0)
(-0.242901 0 0)
(-0.240879 0 0)
(-0.238857 0 0)
(-0.236835 0 0)
(-0.234813 0 0)
(-0.23279 0 0)
(-0.230767 0 0)
(-0.228743 0 0)
(-0.22672 0 0)
(-0.224696 0 0)
(-0.222672 0 0)
(-0.220648 0 0)
(-0.218623 0 0)
(-0.216598 0 0)
(-0.214573 0 0)
(-0.212547 0 0)
(-0.210522 0 0)
(-0.208496 0 0)
(-0.20647 0 0)
(-0.204443 0 0)
(-0.202417 0 0)
(-0.20039 0 0)
(-0.198363 0 0)
(-0.196336 0 0)
(-0.194308 0 0)
(-0.19228 0 0)
(-0.190252 0 0)
(-0.188224 0 0)
(-0.186196 0 0)
(-0.184167 0 0)
(-0.182138 0 0)
(-0.180109 0 0)
(-0.17808 0 0)
(-0.176051 0 0)
(-0.174021 0 0)
(-0.171991 0 0)
(-0.169961 0 0)
(-0.167931 0 0)
(-0.165901 0 0)
(-0.16387 0 0)
(-0.161839 0 0)
(-0.159808 0 0)
(-0.157777 0 0)
(-0.155746 0 0)
(-0.153714 0 0)
(-0.151682 0 0)
(-0.149651 0 0)
(-0.147618 0 0)
(-0.145586 0 0)
(-0.143554 0 0)
(-0.141521 0 0)
(-0.139489 0 0)
(-0.137456 0 0)
(-0.135423 0 0)
(-0.13339 0 0)
(-0.131356 0 0)
(-0.129323 0 0)
(-0.127289 0 0)
(-0.125256 0 0)
(-0.123222 0 0)
(-0.121188 0 0)
(-0.119154 0 0)
(-0.117119 0 0)
(-0.115085 0 0)
(-0.11305 0 0)
(-0.111016 0 0)
(-0.108981 0 0)
(-0.106946 0 0)
(-0.104911 0 0)
(-0.102876 0 0)
(-0.10084 0 0)
(-0.098805 0 0)
(-0.0967695 0 0)
(-0.0947339 0 0)
(-0.0926982 0 0)
(-0.0906624 0 0)
(-0.0886265 0 0)
(-0.0865905 0 0)
(-0.0845544 0 0)
(-0.0825182 0 0)
(-0.0804819 0 0)
(-0.0784455 0 0)
(-0.076409 0 0)
(-0.0743725 0 0)
(-0.0723358 0 0)
(-0.0702991 0 0)
(-0.0682623 0 0)
(-0.0662254 0 0)
(-0.0641885 0 0)
(-0.0621515 0 0)
(-0.0601144 0 0)
(-0.0580772 0 0)
(-0.05604 0 0)
(-0.0540027 0 0)
(-0.0519654 0 0)
(-0.049928 0 0)
(-0.0478905 0 0)
(-0.045853 0 0)
(-0.0438155 0 0)
(-0.0417779 0 0)
(-0.0397402 0 0)
(-0.0377025 0 0)
(-0.0356648 0 0)
(-0.033627 0 0)
(-0.0315892 0 0)
(-0.0295513 0 0)
(-0.0275135 0 0)
(-0.0254756 0 0)
(-0.0234376 0 0)
(-0.0213996 0 0)
(-0.0193617 0 0)
(-0.0173236 0 0)
(-0.0152856 0 0)
(-0.0132476 0 0)
(-0.0112095 0 0)
(-0.00917143 0 0)
(-0.00713334 0 0)
(-0.00509525 0 0)
(-0.00305715 0 0)
(-0.00101905 0 0)
)
;

boundaryField
{
    left
    {
        type            fixedValue;
        value           uniform (0 0 0);
    }
    right
    {
        type            fixedValue;
        value           uniform (0 0 0);
    }
    frontBackUpDown
    {
        type            empty;
    }
}


// ************************************************************************* //
